
     Program PWSCF v.6.5 starts on  2Nov2020 at 14:20:14 

     This program is part of the open-source Quantum ESPRESSO suite
     for quantum simulation of materials; please cite
         "P. Giannozzi et al., J. Phys.:Condens. Matter 21 395502 (2009);
         "P. Giannozzi et al., J. Phys.:Condens. Matter 29 465901 (2017);
          URL http://www.quantum-espresso.org", 
     in publications or presentations arising from this work. More details at
     http://www.quantum-espresso.org/quote

     Parallel version (MPI), running on     4 processors

     MPI processes distributed on     1 nodes
     K-points division:     npool     =       4
     Reading input from DISP.supercell_template.in.09

     Current dimensions of program PWSCF are:
     Max number of different atomic species (ntypx) = 10
     Max number of k-points (npk) =  40000
     Max angular momentum in pseudopotentials (lmaxx) =  3

     Subspace diagonalization in iterative solution of the eigenvalue problem:
     a serial algorithm will be used

     Message from routine setup:
     using ibrav=0 with symmetry is DISCOURAGED, use correct ibrav instead

     G-vector sticks info
     --------------------
     sticks:   dense  smooth     PW     G-vecs:    dense   smooth      PW
     Sum        1723    1723    475                47183    47183    6855



     bravais-lattice index     =            0
     lattice parameter (alat)  =      14.4250  a.u.
     unit-cell volume          =    2122.4160 (a.u.)^3
     number of atoms/cell      =           16
     number of atomic types    =            1
     number of electrons       =        64.00
     number of Kohn-Sham states=           32
     kinetic-energy cutoff     =      30.0000  Ry
     charge density cutoff     =     120.0000  Ry
     convergence threshold     =      1.0E-10
     mixing beta               =       0.7000
     number of iterations used =            8  plain     mixing
     Exchange-correlation= SLA PZ NOGX NOGC
                           (   1   1   0   0   0   0   0)

     celldm(1)=  14.424978  celldm(2)=   0.000000  celldm(3)=   0.000000
     celldm(4)=   0.000000  celldm(5)=   0.000000  celldm(6)=   0.000000

     crystal axes: (cart. coord. in units of alat)
               a(1) = (  -0.707107   0.000000   0.707107 )  
               a(2) = (   0.000000   0.707107   0.707107 )  
               a(3) = (  -0.707107   0.707107   0.000000 )  

     reciprocal axes: (cart. coord. in units 2 pi/alat)
               b(1) = ( -0.707107 -0.707107  0.707107 )  
               b(2) = (  0.707107  0.707107  0.707107 )  
               b(3) = ( -0.707107  0.707107 -0.707107 )  


     PseudoPot. # 1 for Si read from file:
     ../../pseudoPotentials/Si.pz-vbc.UPF
     MD5 check sum: 9f25e6ff280f3123e9b3a84715b2e9c9
     Pseudo is Norm-conserving, Zval =  4.0
     Generated by new atomic code, or converted to UPF format
     Using radial grid of  431 points,  2 beta functions with: 
                l(1) =   0
                l(2) =   1

     atomic species   valence    mass     pseudopotential
        Si             4.00    28.08600     Si( 1.00)

      4 Sym. Ops., with inversion, found



   Cartesian axes

     site n.     atom                  positions (alat units)
         1           Si  tau(   1) = (  -0.0883883  -0.0883883  -0.0896984  )
         2           Si  tau(   2) = (   0.0883883   0.0883883   0.0896984  )
         3           Si  tau(   3) = (  -0.4419417  -0.0883883   0.2651650  )
         4           Si  tau(   4) = (  -0.2651650   0.0883883   0.4419417  )
         5           Si  tau(   5) = (  -0.0883883   0.2651650   0.2651650  )
         6           Si  tau(   6) = (   0.0883883   0.4419417   0.4419417  )
         7           Si  tau(   7) = (  -0.4419417   0.2651650   0.6187184  )
         8           Si  tau(   8) = (  -0.2651650   0.4419417   0.7954951  )
         9           Si  tau(   9) = (  -0.4419417   0.2651650  -0.0883883  )
        10           Si  tau(  10) = (  -0.2651650   0.4419417   0.0883883  )
        11           Si  tau(  11) = (  -0.7954951   0.2651650   0.2651650  )
        12           Si  tau(  12) = (  -0.6187184   0.4419417   0.4419417  )
        13           Si  tau(  13) = (  -0.4419417   0.6187184   0.2651650  )
        14           Si  tau(  14) = (  -0.2651650   0.7954951   0.4419417  )
        15           Si  tau(  15) = (  -0.7954951   0.6187184   0.6187184  )
        16           Si  tau(  16) = (  -0.6187184   0.7954951   0.7954951  )

     number of k points=    10
                       cart. coord. in units 2pi/alat
        k(    1) = (   0.0000000   0.0000000   0.0000000), wk =   0.0740741
        k(    2) = (  -0.2357023   0.2357023  -0.2357023), wk =   0.2962963
        k(    3) = (   0.0000000   0.4714045   0.0000000), wk =   0.2962963
        k(    4) = (   0.4714045  -0.0000000   0.4714045), wk =   0.2962963
        k(    5) = (   0.2357023   0.2357023  -0.2357023), wk =   0.1481481
        k(    6) = (  -0.2357023  -0.2357023  -0.2357023), wk =   0.1481481
        k(    7) = (   0.0000000   0.0000000   0.4714045), wk =   0.1481481
        k(    8) = (  -0.0000000   0.4714045  -0.4714045), wk =   0.2962963
        k(    9) = (  -0.4714045   0.4714045  -0.0000000), wk =   0.1481481
        k(   10) = (  -0.4714045  -0.4714045   0.0000000), wk =   0.1481481

     Dense  grid:    47183 G-vectors     FFT dimensions: (  54,  54,  54)

     Estimated max dynamical RAM per process >      71.64 MB

     Estimated total dynamical RAM >     286.57 MB

     Initial potential from superposition of free atoms

     starting charge   63.99206, renormalised to   64.00000
     Starting wfcs are   64 randomized atomic wfcs

     total cpu time spent up to now is        2.0 secs

     Self-consistent Calculation

     iteration #  1     ecut=    30.00 Ry     beta= 0.70
     Davidson diagonalization with overlap
     ethr =  1.00E-02,  avg # of iterations =  2.0

     Threshold (ethr) on eigenvalues was too large:
     Diagonalizing with lowered threshold

     Davidson diagonalization with overlap
     ethr =  8.05E-04,  avg # of iterations =  1.0

     total cpu time spent up to now is        7.3 secs

     total energy              =    -126.77597023 Ry
     Harris-Foulkes estimate   =    -126.94713149 Ry
     estimated scf accuracy    <       0.50310069 Ry

     iteration #  2     ecut=    30.00 Ry     beta= 0.70
     Davidson diagonalization with overlap
     ethr =  7.86E-04,  avg # of iterations =  1.0

     total cpu time spent up to now is        9.5 secs

     total energy              =    -126.80087262 Ry
     Harris-Foulkes estimate   =    -126.80331083 Ry
     estimated scf accuracy    <       0.01760290 Ry

     iteration #  3     ecut=    30.00 Ry     beta= 0.70
     Davidson diagonalization with overlap
     ethr =  2.75E-05,  avg # of iterations =  2.9

     total cpu time spent up to now is       12.5 secs

     total energy              =    -126.80420079 Ry
     Harris-Foulkes estimate   =    -126.80444955 Ry
     estimated scf accuracy    <       0.00058452 Ry

     iteration #  4     ecut=    30.00 Ry     beta= 0.70
     Davidson diagonalization with overlap
     ethr =  9.13E-07,  avg # of iterations =  2.6

     total cpu time spent up to now is       15.7 secs

     total energy              =    -126.80434500 Ry
     Harris-Foulkes estimate   =    -126.80438133 Ry
     estimated scf accuracy    <       0.00007985 Ry

     iteration #  5     ecut=    30.00 Ry     beta= 0.70
     Davidson diagonalization with overlap
     ethr =  1.25E-07,  avg # of iterations =  2.6

     total cpu time spent up to now is       19.0 secs

     total energy              =    -126.80435553 Ry
     Harris-Foulkes estimate   =    -126.80436124 Ry
     estimated scf accuracy    <       0.00001330 Ry

     iteration #  6     ecut=    30.00 Ry     beta= 0.70
     Davidson diagonalization with overlap
     ethr =  2.08E-08,  avg # of iterations =  2.4

     total cpu time spent up to now is       22.0 secs

     total energy              =    -126.80435799 Ry
     Harris-Foulkes estimate   =    -126.80435811 Ry
     estimated scf accuracy    <       0.00000041 Ry

     iteration #  7     ecut=    30.00 Ry     beta= 0.70
     Davidson diagonalization with overlap
     ethr =  6.45E-10,  avg # of iterations =  2.8

     total cpu time spent up to now is       25.1 secs

     total energy              =    -126.80435805 Ry
     Harris-Foulkes estimate   =    -126.80435807 Ry
     estimated scf accuracy    <       0.00000006 Ry

     iteration #  8     ecut=    30.00 Ry     beta= 0.70
     Davidson diagonalization with overlap
     ethr =  8.83E-11,  avg # of iterations =  2.3

     total cpu time spent up to now is       27.8 secs

     total energy              =    -126.80435806 Ry
     Harris-Foulkes estimate   =    -126.80435806 Ry
     estimated scf accuracy    <          2.1E-09 Ry

     iteration #  9     ecut=    30.00 Ry     beta= 0.70
     Davidson diagonalization with overlap
     ethr =  3.21E-12,  avg # of iterations =  3.5

     total cpu time spent up to now is       31.2 secs

     End of self-consistent calculation

          k = 0.0000 0.0000 0.0000 (  5961 PWs)   bands (ev):

    -5.8156  -3.4275  -3.4265  -3.4264  -3.4140  -1.6135  -1.6064  -1.6063
    -1.6037  -1.5952  -1.5891  -0.8344  -0.8255  -0.8180  -0.8179   3.3260
     3.3299   3.3312   3.3324   3.3338   3.3374   5.0110   5.0146   5.0167
     5.0202   5.0221   5.0259   5.0277   5.0425   6.2255   6.2377   6.2502

          k =-0.2357 0.2357-0.2357 (  5888 PWs)   bands (ev):

    -5.4483  -4.4114  -3.2722  -3.2708  -3.2650  -2.6964  -2.6933  -2.6876
    -0.4374  -0.4258  -0.4248  -0.3362  -0.3274  -0.3241   0.8496   2.5105
     2.5145   2.5166   3.4117   3.4144   3.4185   3.6356   3.6363   3.6413
     3.8432   4.4305   4.4314   4.4375   5.2181   5.2310   5.7753   5.7896

          k = 0.0000 0.4714 0.0000 (  5866 PWs)   bands (ev):

    -5.3238  -3.8802  -3.6746  -3.6704  -3.6630  -3.6579  -1.4822  -1.4739
    -1.4700  -1.4614   0.1760   0.1834   0.1881   0.1947   1.2436   2.4956
     2.4992   2.5032   2.5065   3.1295   3.1332   3.1362   3.1461   3.7745
     3.7745   4.2295   4.9155   4.9189   4.9225   4.9250   5.0208   5.0212

          k = 0.4714-0.0000 0.4714 (  5902 PWs)   bands (ev):

    -4.8499  -4.4942  -4.4931  -3.4839  -3.4838  -2.4833  -2.4716  -2.4651
    -0.6399  -0.6276  -0.5490   0.5955   0.5956   1.7099   1.7847   1.7952
     2.1375   2.1390   2.5209   2.5837   2.5841   3.4056   3.4132   3.7680
     3.8920   3.8923   4.0881   4.2100   4.2223   4.4586   4.4597   5.6672

          k = 0.2357 0.2357-0.2357 (  5888 PWs)   bands (ev):

    -5.4486  -4.4131  -3.2722  -3.2720  -3.2589  -2.6963  -2.6955  -2.6820
    -0.4422  -0.4338  -0.4253  -0.3389  -0.3367  -0.3233   0.8580   2.5178
     2.5181   2.5248   3.4183   3.4202   3.4305   3.6312   3.6339   3.6380
     3.8525   4.4243   4.4277   4.4318   5.2144   5.2278   5.7701   5.7840

          k =-0.2357-0.2357-0.2357 (  5888 PWs)   bands (ev):

    -5.4486  -4.4131  -3.2722  -3.2707  -3.2601  -2.6955  -2.6929  -2.6856
    -0.4407  -0.4340  -0.4263  -0.3366  -0.3329  -0.3299   0.8581   2.5181
     2.5193   2.5234   3.4183   3.4214   3.4294   3.6298   3.6355   3.6379
     3.8525   4.4222   4.4298   4.4317   5.2146   5.2277   5.7699   5.7840

          k = 0.0000 0.0000 0.4714 (  5866 PWs)   bands (ev):

    -5.3238  -3.8803  -3.6699  -3.6685  -3.6683  -3.6590  -1.4764  -1.4763
    -1.4676  -1.4675   0.1771   0.1815   0.1919   0.1919   1.2437   2.5010
     2.5010   2.5015   2.5015   3.1320   3.1374   3.1379   3.1380   3.7695
     3.7790   4.2297   4.9119   4.9130   4.9183   4.9353   5.0149   5.0297

          k =-0.0000 0.4714-0.4714 (  5902 PWs)   bands (ev):

    -4.8499  -4.4942  -4.4931  -3.4884  -3.4794  -2.4830  -2.4715  -2.4654
    -0.6398  -0.6276  -0.5491   0.5887   0.6024   1.7097   1.7850   1.7952
     2.1374   2.1390   2.5208   2.5821   2.5858   3.4056   3.4132   3.7678
     3.8893   3.8952   4.0881   4.2099   4.2223   4.4586   4.4598   5.6672

          k =-0.4714 0.4714-0.0000 (  5902 PWs)   bands (ev):

    -4.8493  -4.4996  -4.4871  -3.4856  -3.4855  -2.4779  -2.4716  -2.4702
    -0.6289  -0.6289  -0.5571   0.6029   0.6029   1.7082   1.7836   1.7924
     2.1328   2.1331   2.5130   2.5831   2.5831   3.4123   3.4123   3.7698
     3.8855   3.8856   4.0931   4.2105   4.2130   4.4552   4.4746   5.6771

          k =-0.4714-0.4714 0.0000 (  5902 PWs)   bands (ev):

    -4.8505  -4.4998  -4.4880  -3.4871  -3.4772  -2.4855  -2.4737  -2.4613
    -0.6393  -0.6376  -0.5412   0.5880   0.5886   1.7117   1.7892   1.7947
     2.1388   2.1478   2.5302   2.5808   2.5878   3.4051   3.4086   3.7667
     3.8901   3.9063   4.0823   4.2166   4.2248   4.4486   4.4576   5.6573

     highest occupied level (ev):     6.2502

!    total energy              =    -126.80435806 Ry
     Harris-Foulkes estimate   =    -126.80435806 Ry
     estimated scf accuracy    <          5.9E-11 Ry

     The total energy is the sum of the following terms:

     one-electron contribution =      38.28211173 Ry
     hartree contribution      =       8.66145598 Ry
     xc contribution           =     -38.55021993 Ry
     ewald contribution        =    -135.19770584 Ry

     convergence has been achieved in   9 iterations

     Forces acting on atoms (cartesian axes, Ry/au):

     atom    1 type  1   force =     0.00086680    0.00086680    0.00667560
     atom    2 type  1   force =    -0.00086680   -0.00086680   -0.00667560
     atom    3 type  1   force =     0.00025377   -0.00005494   -0.00022718
     atom    4 type  1   force =    -0.00025377    0.00005494    0.00022718
     atom    5 type  1   force =    -0.00091164    0.00071321    0.00119938
     atom    6 type  1   force =     0.00091164   -0.00071321   -0.00119938
     atom    7 type  1   force =    -0.00088979   -0.00088979    0.00170495
     atom    8 type  1   force =     0.00088979    0.00088979   -0.00170495
     atom    9 type  1   force =    -0.00005389   -0.00005389    0.00029151
     atom   10 type  1   force =     0.00005389    0.00005389   -0.00029151
     atom   11 type  1   force =    -0.00005494    0.00025377   -0.00022718
     atom   12 type  1   force =     0.00005494   -0.00025377    0.00022718
     atom   13 type  1   force =     0.00071321   -0.00091164    0.00119938
     atom   14 type  1   force =    -0.00071321    0.00091164   -0.00119938
     atom   15 type  1   force =     0.00005372    0.00005372   -0.00010682
     atom   16 type  1   force =    -0.00005372   -0.00005372    0.00010682

     Total force =     0.010626     Total SCF correction =     0.000004


     Computing stress (Cartesian axis) and pressure

          total   stress  (Ry/bohr**3)                   (kbar)     P=        1.58
   0.00001081  -0.00000656   0.00000002            1.59       -0.97        0.00
  -0.00000656   0.00001081   0.00000002           -0.97        1.59        0.00
   0.00000002   0.00000002   0.00001065            0.00        0.00        1.57


     Writing output data file ./out/silicon.save/

     init_run     :      1.81s CPU      1.86s WALL (       1 calls)
     electrons    :     29.15s CPU     29.27s WALL (       1 calls)
     forces       :      0.26s CPU      0.26s WALL (       1 calls)
     stress       :      0.72s CPU      0.72s WALL (       1 calls)

     Called by init_run:
     wfcinit      :      1.68s CPU      1.73s WALL (       1 calls)
     potinit      :      0.02s CPU      0.03s WALL (       1 calls)
     hinit0       :      0.06s CPU      0.06s WALL (       1 calls)

     Called by electrons:
     c_bands      :     24.22s CPU     24.30s WALL (      10 calls)
     sum_band     :      4.49s CPU      4.51s WALL (      10 calls)
     v_of_rho     :      0.20s CPU      0.21s WALL (      10 calls)
     mix_rho      :      0.19s CPU      0.19s WALL (      10 calls)

     Called by c_bands:
     init_us_2    :      0.20s CPU      0.21s WALL (      69 calls)
     cegterg      :     23.08s CPU     23.16s WALL (      30 calls)

     Called by sum_band:

     Called by *egterg:
     h_psi        :     22.62s CPU     22.70s WALL (     108 calls)
     g_psi        :      0.06s CPU      0.06s WALL (      75 calls)
     cdiaghg      :      0.28s CPU      0.28s WALL (     102 calls)

     Called by h_psi:
     h_psi:calbec :      0.51s CPU      0.51s WALL (     108 calls)
     vloc_psi     :     21.54s CPU     21.60s WALL (     108 calls)
     add_vuspsi   :      0.49s CPU      0.49s WALL (     108 calls)

     General routines
     calbec       :      0.58s CPU      0.58s WALL (     123 calls)
     fft          :      0.20s CPU      0.20s WALL (      35 calls)
     ffts         :      0.07s CPU      0.07s WALL (      10 calls)
     fftw         :     22.42s CPU     22.49s WALL (    6526 calls)

     Parallel routines

     PWSCF        :     32.05s CPU     32.24s WALL


   This run was terminated on:  14:20:47   2Nov2020            

=------------------------------------------------------------------------------=
   JOB DONE.
=------------------------------------------------------------------------------=
