
     Program PWSCF v.6.5 starts on  2Nov2020 at 14:37:22 

     This program is part of the open-source Quantum ESPRESSO suite
     for quantum simulation of materials; please cite
         "P. Giannozzi et al., J. Phys.:Condens. Matter 21 395502 (2009);
         "P. Giannozzi et al., J. Phys.:Condens. Matter 29 465901 (2017);
          URL http://www.quantum-espresso.org", 
     in publications or presentations arising from this work. More details at
     http://www.quantum-espresso.org/quote

     Parallel version (MPI), running on     4 processors

     MPI processes distributed on     1 nodes
     K-points division:     npool     =       4
     Reading input from DISP.supercell_template.in.30

     Current dimensions of program PWSCF are:
     Max number of different atomic species (ntypx) = 10
     Max number of k-points (npk) =  40000
     Max angular momentum in pseudopotentials (lmaxx) =  3

     Subspace diagonalization in iterative solution of the eigenvalue problem:
     a serial algorithm will be used


     G-vector sticks info
     --------------------
     sticks:   dense  smooth     PW     G-vecs:    dense   smooth      PW
     Sum        1723    1723    475                47183    47183    6855



     bravais-lattice index     =            0
     lattice parameter (alat)  =      14.4250  a.u.
     unit-cell volume          =    2122.4160 (a.u.)^3
     number of atoms/cell      =           16
     number of atomic types    =            1
     number of electrons       =        64.00
     number of Kohn-Sham states=           32
     kinetic-energy cutoff     =      30.0000  Ry
     charge density cutoff     =     120.0000  Ry
     convergence threshold     =      1.0E-10
     mixing beta               =       0.7000
     number of iterations used =            8  plain     mixing
     Exchange-correlation= SLA PZ NOGX NOGC
                           (   1   1   0   0   0   0   0)

     celldm(1)=  14.424978  celldm(2)=   0.000000  celldm(3)=   0.000000
     celldm(4)=   0.000000  celldm(5)=   0.000000  celldm(6)=   0.000000

     crystal axes: (cart. coord. in units of alat)
               a(1) = (  -0.707107   0.000000   0.707107 )  
               a(2) = (   0.000000   0.707107   0.707107 )  
               a(3) = (  -0.707107   0.707107   0.000000 )  

     reciprocal axes: (cart. coord. in units 2 pi/alat)
               b(1) = ( -0.707107 -0.707107  0.707107 )  
               b(2) = (  0.707107  0.707107  0.707107 )  
               b(3) = ( -0.707107  0.707107 -0.707107 )  


     PseudoPot. # 1 for Si read from file:
     ../../pseudoPotentials/Si.pz-vbc.UPF
     MD5 check sum: 9f25e6ff280f3123e9b3a84715b2e9c9
     Pseudo is Norm-conserving, Zval =  4.0
     Generated by new atomic code, or converted to UPF format
     Using radial grid of  431 points,  2 beta functions with: 
                l(1) =   0
                l(2) =   1

     atomic species   valence    mass     pseudopotential
        Si             4.00    28.08600     Si( 1.00)

     No symmetry found



   Cartesian axes

     site n.     atom                  positions (alat units)
         1           Si  tau(   1) = (  -0.0883883  -0.0883883  -0.0870783  )
         2           Si  tau(   2) = (   0.0883883   0.0883883   0.0883883  )
         3           Si  tau(   3) = (  -0.4419417  -0.0870783   0.2651650  )
         4           Si  tau(   4) = (  -0.2651650   0.0883883   0.4419417  )
         5           Si  tau(   5) = (  -0.0883883   0.2651650   0.2651650  )
         6           Si  tau(   6) = (   0.0883883   0.4419417   0.4419417  )
         7           Si  tau(   7) = (  -0.4419417   0.2651650   0.6187184  )
         8           Si  tau(   8) = (  -0.2651650   0.4419417   0.7954951  )
         9           Si  tau(   9) = (  -0.4419417   0.2651650  -0.0883883  )
        10           Si  tau(  10) = (  -0.2651650   0.4419417   0.0883883  )
        11           Si  tau(  11) = (  -0.7954951   0.2651650   0.2651650  )
        12           Si  tau(  12) = (  -0.6187184   0.4419417   0.4419417  )
        13           Si  tau(  13) = (  -0.4419417   0.6187184   0.2651650  )
        14           Si  tau(  14) = (  -0.2651650   0.7954951   0.4419417  )
        15           Si  tau(  15) = (  -0.7954951   0.6187184   0.6187184  )
        16           Si  tau(  16) = (  -0.6187184   0.7954951   0.7954951  )

     number of k points=    14
                       cart. coord. in units 2pi/alat
        k(    1) = (   0.0000000   0.0000000   0.0000000), wk =   0.0740741
        k(    2) = (  -0.2357023   0.2357023  -0.2357023), wk =   0.1481481
        k(    3) = (   0.0000000   0.4714045   0.0000000), wk =   0.1481481
        k(    4) = (   0.4714045  -0.0000000   0.4714045), wk =   0.1481481
        k(    5) = (   0.2357023  -0.2357023  -0.2357023), wk =   0.1481481
        k(    6) = (   0.2357023   0.2357023   0.2357023), wk =   0.1481481
        k(    7) = (  -0.2357023  -0.2357023   0.2357023), wk =   0.1481481
        k(    8) = (   0.4714045   0.0000000   0.0000000), wk =   0.1481481
        k(    9) = (   0.0000000   0.0000000   0.4714045), wk =   0.1481481
        k(   10) = (  -0.4714045   0.0000000   0.4714045), wk =   0.1481481
        k(   11) = (  -0.0000000   0.4714045  -0.4714045), wk =   0.1481481
        k(   12) = (   0.0000000  -0.4714045  -0.4714045), wk =   0.1481481
        k(   13) = (  -0.4714045   0.4714045  -0.0000000), wk =   0.1481481
        k(   14) = (  -0.4714045  -0.4714045   0.0000000), wk =   0.1481481

     Dense  grid:    47183 G-vectors     FFT dimensions: (  54,  54,  54)

     Estimated max dynamical RAM per process >      74.52 MB

     Estimated total dynamical RAM >     298.07 MB

     Initial potential from superposition of free atoms

     starting charge   63.99206, renormalised to   64.00000
     Starting wfcs are   64 randomized atomic wfcs

     total cpu time spent up to now is        3.3 secs

     Self-consistent Calculation

     iteration #  1     ecut=    30.00 Ry     beta= 0.70
     Davidson diagonalization with overlap
     ethr =  1.00E-02,  avg # of iterations =  2.0

     Threshold (ethr) on eigenvalues was too large:
     Diagonalizing with lowered threshold

     Davidson diagonalization with overlap
     ethr =  8.05E-04,  avg # of iterations =  1.0

     total cpu time spent up to now is       13.4 secs

     total energy              =    -126.77600080 Ry
     Harris-Foulkes estimate   =    -126.94715683 Ry
     estimated scf accuracy    <       0.50308708 Ry

     iteration #  2     ecut=    30.00 Ry     beta= 0.70
     Davidson diagonalization with overlap
     ethr =  7.86E-04,  avg # of iterations =  1.0

     total cpu time spent up to now is       18.1 secs

     total energy              =    -126.80090097 Ry
     Harris-Foulkes estimate   =    -126.80334087 Ry
     estimated scf accuracy    <       0.01760505 Ry

     iteration #  3     ecut=    30.00 Ry     beta= 0.70
     Davidson diagonalization with overlap
     ethr =  2.75E-05,  avg # of iterations =  2.9

     total cpu time spent up to now is       24.2 secs

     total energy              =    -126.80422055 Ry
     Harris-Foulkes estimate   =    -126.80447082 Ry
     estimated scf accuracy    <       0.00058552 Ry

     iteration #  4     ecut=    30.00 Ry     beta= 0.70
     Davidson diagonalization with overlap
     ethr =  9.15E-07,  avg # of iterations =  2.6

     total cpu time spent up to now is       30.6 secs

     total energy              =    -126.80436794 Ry
     Harris-Foulkes estimate   =    -126.80441234 Ry
     estimated scf accuracy    <       0.00010042 Ry

     iteration #  5     ecut=    30.00 Ry     beta= 0.70
     Davidson diagonalization with overlap
     ethr =  1.57E-07,  avg # of iterations =  2.2

     total cpu time spent up to now is       36.6 secs

     total energy              =    -126.80438084 Ry
     Harris-Foulkes estimate   =    -126.80438796 Ry
     estimated scf accuracy    <       0.00001627 Ry

     iteration #  6     ecut=    30.00 Ry     beta= 0.70
     Davidson diagonalization with overlap
     ethr =  2.54E-08,  avg # of iterations =  2.1

     total cpu time spent up to now is       42.5 secs

     total energy              =    -126.80438358 Ry
     Harris-Foulkes estimate   =    -126.80438367 Ry
     estimated scf accuracy    <       0.00000036 Ry

     iteration #  7     ecut=    30.00 Ry     beta= 0.70
     Davidson diagonalization with overlap
     ethr =  5.67E-10,  avg # of iterations =  2.9

     total cpu time spent up to now is       49.0 secs

     total energy              =    -126.80438365 Ry
     Harris-Foulkes estimate   =    -126.80438368 Ry
     estimated scf accuracy    <       0.00000008 Ry

     iteration #  8     ecut=    30.00 Ry     beta= 0.70
     Davidson diagonalization with overlap
     ethr =  1.20E-10,  avg # of iterations =  1.9

     total cpu time spent up to now is       53.2 secs

     total energy              =    -126.80438366 Ry
     Harris-Foulkes estimate   =    -126.80438366 Ry
     estimated scf accuracy    <          5.4E-09 Ry

     iteration #  9     ecut=    30.00 Ry     beta= 0.70
     Davidson diagonalization with overlap
     ethr =  8.44E-12,  avg # of iterations =  3.1

     total cpu time spent up to now is       58.9 secs

     total energy              =    -126.80438366 Ry
     Harris-Foulkes estimate   =    -126.80438366 Ry
     estimated scf accuracy    <          1.0E-10 Ry

     iteration # 10     ecut=    30.00 Ry     beta= 0.70
     Davidson diagonalization with overlap
     ethr =  1.63E-13,  avg # of iterations =  3.3

     total cpu time spent up to now is       65.6 secs

     End of self-consistent calculation

          k = 0.0000 0.0000 0.0000 (  5961 PWs)   bands (ev):

    -5.8156  -3.4310  -3.4236  -3.4236  -3.4162  -1.6118  -1.6108  -1.6023
    -1.6023  -1.5937  -1.5929  -0.8315  -0.8240  -0.8240  -0.8164   3.3281
     3.3281   3.3318   3.3318   3.3355   3.3355   5.0092   5.0146   5.0199
     5.0221   5.0232   5.0254   5.0306   5.0359   6.2290   6.2377   6.2465

          k =-0.2357 0.2357-0.2357 (  5888 PWs)   bands (ev):

    -5.4485  -4.4123  -3.2738  -3.2685  -3.2633  -2.6966  -2.6919  -2.6870
    -0.4377  -0.4312  -0.4253  -0.3362  -0.3311  -0.3264   0.8538   2.5143
     2.5168   2.5201   3.4141   3.4193   3.4234   3.6324   3.6368   3.6391
     3.8479   4.4261   4.4311   4.4343   5.2172   5.2285   5.7736   5.7858

          k = 0.0000 0.4714 0.0000 (  5866 PWs)   bands (ev):

    -5.3238  -3.8802  -3.6740  -3.6672  -3.6657  -3.6589  -1.4795  -1.4719
    -1.4719  -1.4643   0.1778   0.1849   0.1863   0.1934   1.2437   2.4980
     2.5004   2.5020   2.5044   3.1302   3.1357   3.1369   3.1424   3.7720
     3.7768   4.2296   4.9108   4.9195   4.9212   4.9292   5.0179   5.0248

          k = 0.4714-0.0000 0.4714 (  5902 PWs)   bands (ev):

    -4.8495  -4.4978  -4.4892  -3.4880  -3.4813  -2.4810  -2.4722  -2.4666
    -0.6344  -0.6282  -0.5531   0.5958   0.6027   1.7091   1.7853   1.7927
     2.1333   2.1379   2.5170   2.5814   2.5856   3.4087   3.4130   3.7689
     3.8845   3.8933   4.0907   4.2102   4.2176   4.4566   4.4674   5.6720

          k = 0.2357-0.2357-0.2357 (  5888 PWs)   bands (ev):

    -5.4486  -4.4131  -3.2721  -3.2696  -3.2614  -2.6960  -2.6938  -2.6840
    -0.4398  -0.4326  -0.4287  -0.3387  -0.3352  -0.3252   0.8581   2.5175
     2.5192   2.5241   3.4189   3.4212   3.4290   3.6326   3.6336   3.6370
     3.8526   4.4257   4.4270   4.4309   5.2179   5.2244   5.7735   5.7805

          k = 0.2357 0.2357 0.2357 (  5888 PWs)   bands (ev):

    -5.4483  -4.4114  -3.2757  -3.2674  -3.2648  -2.6996  -2.6899  -2.6877
    -0.4341  -0.4299  -0.4231  -0.3373  -0.3277  -0.3237   0.8496   2.5100
     2.5150   2.5166   3.4090   3.4167   3.4190   3.6352   3.6385   3.6395
     3.8432   4.4302   4.4340   4.4352   5.2214   5.2278   5.7788   5.7860

          k =-0.2357-0.2357 0.2357 (  5888 PWs)   bands (ev):

    -5.4485  -4.4122  -3.2737  -3.2685  -3.2633  -2.6967  -2.6918  -2.6871
    -0.4374  -0.4313  -0.4253  -0.3363  -0.3313  -0.3264   0.8538   2.5141
     2.5173   2.5198   3.4144   3.4186   3.4239   3.6330   3.6354   3.6398
     3.8478   4.4266   4.4300   4.4350   5.2172   5.2285   5.7736   5.7858

          k = 0.4714 0.0000 0.0000 (  5866 PWs)   bands (ev):

    -5.3238  -3.8802  -3.6756  -3.6669  -3.6660  -3.6574  -1.4801  -1.4748
    -1.4690  -1.4635   0.1772   0.1830   0.1881   0.1939   1.2436   2.4967
     2.5000   2.5023   2.5056   3.1284   3.1349   3.1377   3.1442   3.7744
     3.7745   4.2296   4.9154   4.9200   4.9210   4.9255   5.0209   5.0209

          k = 0.0000 0.0000 0.4714 (  5866 PWs)   bands (ev):

    -5.3238  -3.8802  -3.6740  -3.6672  -3.6658  -3.6588  -1.4795  -1.4720
    -1.4719  -1.4642   0.1778   0.1849   0.1863   0.1933   1.2437   2.4980
     2.5004   2.5020   2.5044   3.1302   3.1357   3.1369   3.1424   3.7720
     3.7767   4.2296   4.9109   4.9197   4.9212   4.9289   5.0176   5.0251

          k =-0.4714 0.0000 0.4714 (  5902 PWs)   bands (ev):

    -4.8502  -4.4981  -4.4895  -3.4863  -3.4797  -2.4843  -2.4714  -2.4644
    -0.6391  -0.6330  -0.5451   0.5885   0.5954   1.7108   1.7873   1.7947
     2.1385   2.1431   2.5254   2.5822   2.5860   3.4060   3.4103   3.7674
     3.8908   3.8997   4.0852   4.2146   4.2221   4.4509   4.4614   5.6622

          k =-0.0000 0.4714-0.4714 (  5902 PWs)   bands (ev):

    -4.8499  -4.4937  -4.4936  -3.4839  -3.4838  -2.4829  -2.4719  -2.4651
    -0.6399  -0.6275  -0.5491   0.5955   0.5956   1.7099   1.7898   1.7902
     2.1375   2.1390   2.5209   2.5837   2.5842   3.4056   3.4132   3.7679
     3.8921   3.8923   4.0881   4.2160   4.2162   4.4591   4.4592   5.6671

          k = 0.0000-0.4714-0.4714 (  5902 PWs)   bands (ev):

    -4.8499  -4.4942  -4.4931  -3.4883  -3.4794  -2.4829  -2.4695  -2.4676
    -0.6337  -0.6336  -0.5491   0.5887   0.6024   1.7099   1.7847   1.7953
     2.1382   2.1383   2.5208   2.5819   2.5859   3.4094   3.4095   3.7680
     3.8892   3.8952   4.0881   4.2099   4.2223   4.4585   4.4597   5.6671

          k =-0.4714 0.4714-0.0000 (  5902 PWs)   bands (ev):

    -4.8501  -4.4981  -4.4896  -3.4863  -3.4796  -2.4848  -2.4715  -2.4639
    -0.6392  -0.6329  -0.5451   0.5885   0.5954   1.7109   1.7873   1.7946
     2.1385   2.1430   2.5254   2.5821   2.5861   3.4060   3.4103   3.7674
     3.8909   3.8995   4.0853   4.2147   4.2221   4.4507   4.4615   5.6622

          k =-0.4714-0.4714 0.0000 (  5902 PWs)   bands (ev):

    -4.8496  -4.4978  -4.4891  -3.4881  -3.4814  -2.4794  -2.4740  -2.4664
    -0.6344  -0.6282  -0.5531   0.5958   0.6027   1.7090   1.7854   1.7927
     2.1332   2.1380   2.5169   2.5815   2.5855   3.4087   3.4130   3.7688
     3.8844   3.8935   4.0906   4.2102   4.2176   4.4567   4.4674   5.6721

     highest occupied level (ev):     6.2465

!    total energy              =    -126.80438366 Ry
     Harris-Foulkes estimate   =    -126.80438366 Ry
     estimated scf accuracy    <          3.6E-11 Ry

     The total energy is the sum of the following terms:

     one-electron contribution =      38.28209354 Ry
     hartree contribution      =       8.66147113 Ry
     xc contribution           =     -38.55021865 Ry
     ewald contribution        =    -135.19772968 Ry

     convergence has been achieved in  10 iterations

     Forces acting on atoms (cartesian axes, Ry/au):

     atom    1 type  1   force =     0.00000042   -0.00034380   -0.00532791
     atom    2 type  1   force =     0.00085904    0.00086053    0.00132004
     atom    3 type  1   force =    -0.00020121   -0.00532722    0.00017388
     atom    4 type  1   force =     0.00096659    0.00132024    0.00086087
     atom    5 type  1   force =     0.00020013    0.00037427    0.00017499
     atom    6 type  1   force =     0.00000052    0.00225160    0.00047263
     atom    7 type  1   force =     0.00000053    0.00017448   -0.00014417
     atom    8 type  1   force =    -0.00180200    0.00044880    0.00226433
     atom    9 type  1   force =    -0.00000082    0.00017434   -0.00054334
     atom   10 type  1   force =    -0.00010786   -0.00010618    0.00000149
     atom   11 type  1   force =    -0.00020057   -0.00002544    0.00017365
     atom   12 type  1   force =     0.00000017    0.00000155   -0.00010606
     atom   13 type  1   force =     0.00019984    0.00005499    0.00017422
     atom   14 type  1   force =     0.00094401   -0.00094240    0.00141586
     atom   15 type  1   force =     0.00000009   -0.00034390    0.00005458
     atom   16 type  1   force =    -0.00085889    0.00142811   -0.00096507

     Total force =     0.009265     Total SCF correction =     0.000010


     Computing stress (Cartesian axis) and pressure

          total   stress  (Ry/bohr**3)                   (kbar)     P=        1.58
   0.00001079   0.00000329   0.00000329            1.59        0.48        0.48
   0.00000329   0.00001072  -0.00000000            0.48        1.58       -0.00
   0.00000329  -0.00000000   0.00001072            0.48       -0.00        1.58


     Writing output data file ./out/silicon.save/

     init_run     :      3.15s CPU      3.21s WALL (       1 calls)
     electrons    :     61.41s CPU     62.32s WALL (       1 calls)
     forces       :      0.41s CPU      0.42s WALL (       1 calls)
     stress       :      1.46s CPU      1.46s WALL (       1 calls)

     Called by init_run:
     wfcinit      :      2.97s CPU      3.02s WALL (       1 calls)
     potinit      :      0.05s CPU      0.05s WALL (       1 calls)
     hinit0       :      0.09s CPU      0.09s WALL (       1 calls)

     Called by electrons:
     c_bands      :     51.44s CPU     52.20s WALL (      11 calls)
     sum_band     :      9.27s CPU      9.40s WALL (      11 calls)
     v_of_rho     :      0.30s CPU      0.30s WALL (      11 calls)
     mix_rho      :      0.28s CPU      0.30s WALL (      11 calls)

     Called by c_bands:
     init_us_2    :      0.40s CPU      0.40s WALL (     100 calls)
     cegterg      :     46.96s CPU     47.68s WALL (      44 calls)

     Called by sum_band:

     Called by *egterg:
     h_psi        :     45.60s CPU     46.25s WALL (     155 calls)
     g_psi        :      0.13s CPU      0.13s WALL (     107 calls)
     cdiaghg      :      0.50s CPU      0.50s WALL (     147 calls)

     Called by h_psi:
     h_psi:calbec :      1.02s CPU      1.02s WALL (     155 calls)
     vloc_psi     :     43.49s CPU     44.07s WALL (     155 calls)
     add_vuspsi   :      0.95s CPU      0.96s WALL (     155 calls)

     General routines
     calbec       :      1.17s CPU      1.18s WALL (     175 calls)
     fft          :      0.29s CPU      0.29s WALL (      38 calls)
     ffts         :      0.09s CPU      0.09s WALL (      11 calls)
     fftw         :     45.30s CPU     45.92s WALL (    9562 calls)

     Parallel routines

     PWSCF        :   1m 6.52s CPU   1m 7.53s WALL


   This run was terminated on:  14:38:29   2Nov2020            

=------------------------------------------------------------------------------=
   JOB DONE.
=------------------------------------------------------------------------------=
