
     Program PWSCF v.6.5 starts on  2Nov2020 at 14:36:32 

     This program is part of the open-source Quantum ESPRESSO suite
     for quantum simulation of materials; please cite
         "P. Giannozzi et al., J. Phys.:Condens. Matter 21 395502 (2009);
         "P. Giannozzi et al., J. Phys.:Condens. Matter 29 465901 (2017);
          URL http://www.quantum-espresso.org", 
     in publications or presentations arising from this work. More details at
     http://www.quantum-espresso.org/quote

     Parallel version (MPI), running on     4 processors

     MPI processes distributed on     1 nodes
     K-points division:     npool     =       4
     Reading input from DISP.supercell_template.in.29

     Current dimensions of program PWSCF are:
     Max number of different atomic species (ntypx) = 10
     Max number of k-points (npk) =  40000
     Max angular momentum in pseudopotentials (lmaxx) =  3

     Subspace diagonalization in iterative solution of the eigenvalue problem:
     a serial algorithm will be used

     Message from routine setup:
     using ibrav=0 with symmetry is DISCOURAGED, use correct ibrav instead

     G-vector sticks info
     --------------------
     sticks:   dense  smooth     PW     G-vecs:    dense   smooth      PW
     Sum        1723    1723    475                47183    47183    6855



     bravais-lattice index     =            0
     lattice parameter (alat)  =      14.4250  a.u.
     unit-cell volume          =    2122.4160 (a.u.)^3
     number of atoms/cell      =           16
     number of atomic types    =            1
     number of electrons       =        64.00
     number of Kohn-Sham states=           32
     kinetic-energy cutoff     =      30.0000  Ry
     charge density cutoff     =     120.0000  Ry
     convergence threshold     =      1.0E-10
     mixing beta               =       0.7000
     number of iterations used =            8  plain     mixing
     Exchange-correlation= SLA PZ NOGX NOGC
                           (   1   1   0   0   0   0   0)

     celldm(1)=  14.424978  celldm(2)=   0.000000  celldm(3)=   0.000000
     celldm(4)=   0.000000  celldm(5)=   0.000000  celldm(6)=   0.000000

     crystal axes: (cart. coord. in units of alat)
               a(1) = (  -0.707107   0.000000   0.707107 )  
               a(2) = (   0.000000   0.707107   0.707107 )  
               a(3) = (  -0.707107   0.707107   0.000000 )  

     reciprocal axes: (cart. coord. in units 2 pi/alat)
               b(1) = ( -0.707107 -0.707107  0.707107 )  
               b(2) = (  0.707107  0.707107  0.707107 )  
               b(3) = ( -0.707107  0.707107 -0.707107 )  


     PseudoPot. # 1 for Si read from file:
     ../../pseudoPotentials/Si.pz-vbc.UPF
     MD5 check sum: 9f25e6ff280f3123e9b3a84715b2e9c9
     Pseudo is Norm-conserving, Zval =  4.0
     Generated by new atomic code, or converted to UPF format
     Using radial grid of  431 points,  2 beta functions with: 
                l(1) =   0
                l(2) =   1

     atomic species   valence    mass     pseudopotential
        Si             4.00    28.08600     Si( 1.00)

      2 Sym. Ops. (no inversion) found ( 1 have fractional translation)



   Cartesian axes

     site n.     atom                  positions (alat units)
         1           Si  tau(   1) = (  -0.0883883  -0.0883883  -0.0870783  )
         2           Si  tau(   2) = (   0.0883883   0.0883883   0.0883883  )
         3           Si  tau(   3) = (  -0.4406317  -0.0883883   0.2651650  )
         4           Si  tau(   4) = (  -0.2651650   0.0883883   0.4419417  )
         5           Si  tau(   5) = (  -0.0883883   0.2651650   0.2651650  )
         6           Si  tau(   6) = (   0.0883883   0.4419417   0.4419417  )
         7           Si  tau(   7) = (  -0.4419417   0.2651650   0.6187184  )
         8           Si  tau(   8) = (  -0.2651650   0.4419417   0.7954951  )
         9           Si  tau(   9) = (  -0.4419417   0.2651650  -0.0883883  )
        10           Si  tau(  10) = (  -0.2651650   0.4419417   0.0883883  )
        11           Si  tau(  11) = (  -0.7954951   0.2651650   0.2651650  )
        12           Si  tau(  12) = (  -0.6187184   0.4419417   0.4419417  )
        13           Si  tau(  13) = (  -0.4419417   0.6187184   0.2651650  )
        14           Si  tau(  14) = (  -0.2651650   0.7954951   0.4419417  )
        15           Si  tau(  15) = (  -0.7954951   0.6187184   0.6187184  )
        16           Si  tau(  16) = (  -0.6187184   0.7954951   0.7954951  )

     number of k points=    10
                       cart. coord. in units 2pi/alat
        k(    1) = (   0.0000000   0.0000000   0.0000000), wk =   0.0740741
        k(    2) = (  -0.2357023   0.2357023  -0.2357023), wk =   0.1481481
        k(    3) = (   0.0000000   0.4714045   0.0000000), wk =   0.1481481
        k(    4) = (   0.4714045  -0.0000000   0.4714045), wk =   0.1481481
        k(    5) = (   0.2357023   0.2357023   0.2357023), wk =   0.1481481
        k(    6) = (  -0.2357023  -0.2357023   0.2357023), wk =   0.2962963
        k(    7) = (   0.4714045   0.0000000   0.0000000), wk =   0.2962963
        k(    8) = (   0.4714045   0.0000000  -0.4714045), wk =   0.1481481
        k(    9) = (  -0.0000000   0.4714045  -0.4714045), wk =   0.2962963
        k(   10) = (   0.0000000  -0.4714045  -0.4714045), wk =   0.2962963

     Dense  grid:    47183 G-vectors     FFT dimensions: (  54,  54,  54)

     Estimated max dynamical RAM per process >      71.64 MB

     Estimated total dynamical RAM >     286.57 MB

     Initial potential from superposition of free atoms

     starting charge   63.99206, renormalised to   64.00000
     Starting wfcs are   64 randomized atomic wfcs

     total cpu time spent up to now is        2.8 secs

     Self-consistent Calculation

     iteration #  1     ecut=    30.00 Ry     beta= 0.70
     Davidson diagonalization with overlap
     ethr =  1.00E-02,  avg # of iterations =  2.0

     Threshold (ethr) on eigenvalues was too large:
     Diagonalizing with lowered threshold

     Davidson diagonalization with overlap
     ethr =  8.05E-04,  avg # of iterations =  1.0

     total cpu time spent up to now is       10.3 secs

     total energy              =    -126.77599179 Ry
     Harris-Foulkes estimate   =    -126.94715247 Ry
     estimated scf accuracy    <       0.50308962 Ry

     iteration #  2     ecut=    30.00 Ry     beta= 0.70
     Davidson diagonalization with overlap
     ethr =  7.86E-04,  avg # of iterations =  1.0

     total cpu time spent up to now is       13.6 secs

     total energy              =    -126.80089654 Ry
     Harris-Foulkes estimate   =    -126.80333917 Ry
     estimated scf accuracy    <       0.01760759 Ry

     iteration #  3     ecut=    30.00 Ry     beta= 0.70
     Davidson diagonalization with overlap
     ethr =  2.75E-05,  avg # of iterations =  2.9

     total cpu time spent up to now is       17.8 secs

     total energy              =    -126.80421374 Ry
     Harris-Foulkes estimate   =    -126.80447007 Ry
     estimated scf accuracy    <       0.00059259 Ry

     iteration #  4     ecut=    30.00 Ry     beta= 0.70
     Davidson diagonalization with overlap
     ethr =  9.26E-07,  avg # of iterations =  2.7

     total cpu time spent up to now is       22.4 secs

     total energy              =    -126.80435790 Ry
     Harris-Foulkes estimate   =    -126.80441883 Ry
     estimated scf accuracy    <       0.00014048 Ry

     iteration #  5     ecut=    30.00 Ry     beta= 0.70
     Davidson diagonalization with overlap
     ethr =  2.19E-07,  avg # of iterations =  2.1

     total cpu time spent up to now is       26.4 secs

     total energy              =    -126.80437711 Ry
     Harris-Foulkes estimate   =    -126.80438472 Ry
     estimated scf accuracy    <       0.00001717 Ry

     iteration #  6     ecut=    30.00 Ry     beta= 0.70
     Davidson diagonalization with overlap
     ethr =  2.68E-08,  avg # of iterations =  2.1

     total cpu time spent up to now is       30.4 secs

     total energy              =    -126.80437981 Ry
     Harris-Foulkes estimate   =    -126.80437989 Ry
     estimated scf accuracy    <       0.00000031 Ry

     iteration #  7     ecut=    30.00 Ry     beta= 0.70
     Davidson diagonalization with overlap
     ethr =  4.90E-10,  avg # of iterations =  3.4

     total cpu time spent up to now is       35.4 secs

     total energy              =    -126.80437989 Ry
     Harris-Foulkes estimate   =    -126.80437991 Ry
     estimated scf accuracy    <       0.00000007 Ry

     iteration #  8     ecut=    30.00 Ry     beta= 0.70
     Davidson diagonalization with overlap
     ethr =  1.14E-10,  avg # of iterations =  1.6

     total cpu time spent up to now is       39.0 secs

     total energy              =    -126.80437989 Ry
     Harris-Foulkes estimate   =    -126.80437990 Ry
     estimated scf accuracy    <          7.0E-09 Ry

     iteration #  9     ecut=    30.00 Ry     beta= 0.70
     Davidson diagonalization with overlap
     ethr =  1.10E-11,  avg # of iterations =  2.9

     total cpu time spent up to now is       43.4 secs

     total energy              =    -126.80437990 Ry
     Harris-Foulkes estimate   =    -126.80437990 Ry
     estimated scf accuracy    <          3.9E-10 Ry

     iteration # 10     ecut=    30.00 Ry     beta= 0.70
     Davidson diagonalization with overlap
     ethr =  6.07E-13,  avg # of iterations =  2.8

     total cpu time spent up to now is       47.6 secs

     End of self-consistent calculation

          k = 0.0000 0.0000 0.0000 (  5961 PWs)   bands (ev):

    -5.8156  -3.4310  -3.4236  -3.4236  -3.4162  -1.6115  -1.6111  -1.6025
    -1.6023  -1.5933  -1.5932  -0.8314  -0.8241  -0.8240  -0.8164   3.3265
     3.3311   3.3318   3.3318   3.3324   3.3370   5.0105   5.0130   5.0192
     5.0220   5.0233   5.0262   5.0320   5.0349   6.2290   6.2377   6.2464

          k =-0.2357 0.2357-0.2357 (  5888 PWs)   bands (ev):

    -5.4486  -4.4131  -3.2722  -3.2685  -3.2624  -2.6958  -2.6916  -2.6864
    -0.4391  -0.4316  -0.4305  -0.3375  -0.3328  -0.3288   0.8581   2.5176
     2.5212   2.5220   3.4189   3.4247   3.4256   3.6304   3.6354   3.6372
     3.8525   4.4232   4.4293   4.4311   5.2178   5.2245   5.7736   5.7805

          k = 0.0000 0.4714 0.0000 (  5866 PWs)   bands (ev):

    -5.3238  -3.8803  -3.6755  -3.6666  -3.6664  -3.6573  -1.4806  -1.4724
    -1.4713  -1.4631   0.1767   0.1855   0.1856   0.1943   1.2437   2.4972
     2.4986   2.5038   2.5050   3.1283   3.1362   3.1363   3.1443   3.7744
     3.7745   4.2297   4.9153   4.9203   4.9206   4.9255   5.0210   5.0210

          k = 0.4714-0.0000 0.4714 (  5902 PWs)   bands (ev):

    -4.8499  -4.4942  -4.4931  -3.4839  -3.4838  -2.4825  -2.4694  -2.4679
    -0.6337  -0.6336  -0.5492   0.5955   0.5956   1.7096   1.7850   1.7953
     2.1382   2.1382   2.5210   2.5837   2.5840   3.4093   3.4094   3.7681
     3.8921   3.8923   4.0880   4.2101   4.2223   4.4585   4.4597   5.6671

          k = 0.2357 0.2357 0.2357 (  5888 PWs)   bands (ev):

    -5.4484  -4.4114  -3.2746  -3.2687  -3.2648  -2.6972  -2.6919  -2.6879
    -0.4327  -0.4304  -0.4242  -0.3331  -0.3305  -0.3248   0.8496   2.5121
     2.5129   2.5165   3.4121   3.4134   3.4190   3.6350   3.6367   3.6415
     3.8433   4.4300   4.4316   4.4379   5.2214   5.2277   5.7789   5.7859

          k =-0.2357-0.2357 0.2357 (  5888 PWs)   bands (ev):

    -5.4485  -4.4123  -3.2745  -3.2685  -3.2626  -2.6982  -2.6919  -2.6853
    -0.4388  -0.4312  -0.4243  -0.3384  -0.3312  -0.3241   0.8538   2.5132
     2.5171   2.5209   3.4129   3.4189   3.4250   3.6337   3.6361   3.6383
     3.8480   4.4278   4.4306   4.4332   5.2172   5.2285   5.7737   5.7858

          k = 0.4714 0.0000 0.0000 (  5866 PWs)   bands (ev):

    -5.3238  -3.8804  -3.6739  -3.6672  -3.6657  -3.6588  -1.4795  -1.4720
    -1.4719  -1.4642   0.1778   0.1849   0.1863   0.1934   1.2437   2.4980
     2.5004   2.5020   2.5044   3.1302   3.1357   3.1369   3.1424   3.7720
     3.7768   4.2296   4.9104   4.9197   4.9212   4.9289   5.0182   5.0251

          k = 0.4714 0.0000-0.4714 (  5902 PWs)   bands (ev):

    -4.8499  -4.4937  -4.4936  -3.4883  -3.4794  -2.4827  -2.4718  -2.4654
    -0.6397  -0.6275  -0.5491   0.5887   0.6024   1.7096   1.7900   1.7902
     2.1375   2.1389   2.5207   2.5820   2.5860   3.4055   3.4132   3.7679
     3.8893   3.8953   4.0881   4.2160   4.2162   4.4590   4.4593   5.6671

          k =-0.0000 0.4714-0.4714 (  5902 PWs)   bands (ev):

    -4.8503  -4.4980  -4.4895  -3.4864  -3.4796  -2.4847  -2.4714  -2.4639
    -0.6392  -0.6329  -0.5451   0.5885   0.5954   1.7107   1.7874   1.7947
     2.1385   2.1431   2.5255   2.5820   2.5862   3.4060   3.4103   3.7673
     3.8910   3.8995   4.0851   4.2147   4.2221   4.4508   4.4615   5.6623

          k = 0.0000-0.4714-0.4714 (  5902 PWs)   bands (ev):

    -4.8496  -4.4979  -4.4891  -3.4880  -3.4814  -2.4817  -2.4719  -2.4661
    -0.6344  -0.6282  -0.5530   0.5958   0.6027   1.7089   1.7854   1.7927
     2.1332   2.1380   2.5170   2.5815   2.5855   3.4087   3.4130   3.7688
     3.8842   3.8935   4.0906   4.2104   4.2176   4.4567   4.4673   5.6721

     highest occupied level (ev):     6.2464

!    total energy              =    -126.80437990 Ry
     Harris-Foulkes estimate   =    -126.80437990 Ry
     estimated scf accuracy    <          9.3E-11 Ry

     The total energy is the sum of the following terms:

     one-electron contribution =      38.28194977 Ry
     hartree contribution      =       8.66154126 Ry
     xc contribution           =     -38.55021911 Ry
     ewald contribution        =    -135.19765182 Ry

     convergence has been achieved in  10 iterations

     Forces acting on atoms (cartesian axes, Ry/au):

     atom    1 type  1   force =     0.00017440   -0.00000203   -0.00552662
     atom    2 type  1   force =     0.00086111    0.00085943    0.00142776
     atom    3 type  1   force =    -0.00552662   -0.00000203    0.00017440
     atom    4 type  1   force =     0.00142776    0.00085943    0.00086111
     atom    5 type  1   force =     0.00017508    0.00039921    0.00017508
     atom    6 type  1   force =     0.00047177    0.00178097    0.00047177
     atom    7 type  1   force =    -0.00034384   -0.00000032   -0.00034384
     atom    8 type  1   force =     0.00046118   -0.00182460    0.00046118
     atom    9 type  1   force =    -0.00034379   -0.00000011   -0.00034379
     atom   10 type  1   force =    -0.00010633   -0.00010765   -0.00010633
     atom   11 type  1   force =     0.00017371   -0.00040038    0.00017371
     atom   12 type  1   force =    -0.00010595    0.00010767   -0.00010595
     atom   13 type  1   force =     0.00025448    0.00000070    0.00017427
     atom   14 type  1   force =     0.00083728   -0.00083550    0.00141549
     atom   15 type  1   force =     0.00017427    0.00000070    0.00025448
     atom   16 type  1   force =     0.00141549   -0.00083550    0.00083728

     Total force =     0.009140     Total SCF correction =     0.000017


     Computing stress (Cartesian axis) and pressure

          total   stress  (Ry/bohr**3)                   (kbar)     P=        1.58
   0.00001072   0.00000329  -0.00000000            1.58        0.48       -0.00
   0.00000329   0.00001078   0.00000329            0.48        1.59        0.48
  -0.00000000   0.00000329   0.00001072           -0.00        0.48        1.58


     Writing output data file ./out/silicon.save/

     init_run     :      2.65s CPU      2.72s WALL (       1 calls)
     electrons    :     44.49s CPU     44.79s WALL (       1 calls)
     forces       :      0.33s CPU      0.33s WALL (       1 calls)
     stress       :      1.03s CPU      1.03s WALL (       1 calls)

     Called by init_run:
     wfcinit      :      2.46s CPU      2.51s WALL (       1 calls)
     potinit      :      0.06s CPU      0.07s WALL (       1 calls)
     hinit0       :      0.08s CPU      0.09s WALL (       1 calls)

     Called by electrons:
     c_bands      :     36.91s CPU     37.14s WALL (      11 calls)
     sum_band     :      6.91s CPU      6.97s WALL (      11 calls)
     v_of_rho     :      0.26s CPU      0.26s WALL (      11 calls)
     mix_rho      :      0.26s CPU      0.26s WALL (      11 calls)

     Called by c_bands:
     init_us_2    :      0.29s CPU      0.29s WALL (      75 calls)
     cegterg      :     33.55s CPU     33.76s WALL (      33 calls)

     Called by sum_band:

     Called by *egterg:
     h_psi        :     32.82s CPU     33.03s WALL (     115 calls)
     g_psi        :      0.09s CPU      0.09s WALL (      79 calls)
     cdiaghg      :      0.37s CPU      0.38s WALL (     109 calls)

     Called by h_psi:
     h_psi:calbec :      0.75s CPU      0.75s WALL (     115 calls)
     vloc_psi     :     31.25s CPU     31.42s WALL (     115 calls)
     add_vuspsi   :      0.71s CPU      0.71s WALL (     115 calls)

     General routines
     calbec       :      0.85s CPU      0.85s WALL (     130 calls)
     fft          :      0.28s CPU      0.28s WALL (      38 calls)
     ffts         :      0.08s CPU      0.09s WALL (      11 calls)
     fftw         :     32.69s CPU     32.88s WALL (    7064 calls)

     Parallel routines

     PWSCF        :     48.59s CPU     48.97s WALL


   This run was terminated on:  14:37:21   2Nov2020            

=------------------------------------------------------------------------------=
   JOB DONE.
=------------------------------------------------------------------------------=
