
     Program PWSCF v.6.5 starts on  2Nov2020 at 14:57:44 

     This program is part of the open-source Quantum ESPRESSO suite
     for quantum simulation of materials; please cite
         "P. Giannozzi et al., J. Phys.:Condens. Matter 21 395502 (2009);
         "P. Giannozzi et al., J. Phys.:Condens. Matter 29 465901 (2017);
          URL http://www.quantum-espresso.org", 
     in publications or presentations arising from this work. More details at
     http://www.quantum-espresso.org/quote

     Parallel version (MPI), running on     4 processors

     MPI processes distributed on     1 nodes
     K-points division:     npool     =       4
     Reading input from DISP.supercell_template.in.54

     Current dimensions of program PWSCF are:
     Max number of different atomic species (ntypx) = 10
     Max number of k-points (npk) =  40000
     Max angular momentum in pseudopotentials (lmaxx) =  3

     Subspace diagonalization in iterative solution of the eigenvalue problem:
     a serial algorithm will be used

     Message from routine setup:
     using ibrav=0 with symmetry is DISCOURAGED, use correct ibrav instead

     G-vector sticks info
     --------------------
     sticks:   dense  smooth     PW     G-vecs:    dense   smooth      PW
     Sum        1723    1723    475                47183    47183    6855



     bravais-lattice index     =            0
     lattice parameter (alat)  =      14.4250  a.u.
     unit-cell volume          =    2122.4160 (a.u.)^3
     number of atoms/cell      =           16
     number of atomic types    =            1
     number of electrons       =        64.00
     number of Kohn-Sham states=           32
     kinetic-energy cutoff     =      30.0000  Ry
     charge density cutoff     =     120.0000  Ry
     convergence threshold     =      1.0E-10
     mixing beta               =       0.7000
     number of iterations used =            8  plain     mixing
     Exchange-correlation= SLA PZ NOGX NOGC
                           (   1   1   0   0   0   0   0)

     celldm(1)=  14.424978  celldm(2)=   0.000000  celldm(3)=   0.000000
     celldm(4)=   0.000000  celldm(5)=   0.000000  celldm(6)=   0.000000

     crystal axes: (cart. coord. in units of alat)
               a(1) = (  -0.707107   0.000000   0.707107 )  
               a(2) = (   0.000000   0.707107   0.707107 )  
               a(3) = (  -0.707107   0.707107   0.000000 )  

     reciprocal axes: (cart. coord. in units 2 pi/alat)
               b(1) = ( -0.707107 -0.707107  0.707107 )  
               b(2) = (  0.707107  0.707107  0.707107 )  
               b(3) = ( -0.707107  0.707107 -0.707107 )  


     PseudoPot. # 1 for Si read from file:
     ../../pseudoPotentials/Si.pz-vbc.UPF
     MD5 check sum: 9f25e6ff280f3123e9b3a84715b2e9c9
     Pseudo is Norm-conserving, Zval =  4.0
     Generated by new atomic code, or converted to UPF format
     Using radial grid of  431 points,  2 beta functions with: 
                l(1) =   0
                l(2) =   1

     atomic species   valence    mass     pseudopotential
        Si             4.00    28.08600     Si( 1.00)

      2 Sym. Ops. (no inversion) found



   Cartesian axes

     site n.     atom                  positions (alat units)
         1           Si  tau(   1) = (  -0.0883883  -0.0870783  -0.0883883  )
         2           Si  tau(   2) = (   0.0883883   0.0883883   0.0870783  )
         3           Si  tau(   3) = (  -0.4419417  -0.0883883   0.2651650  )
         4           Si  tau(   4) = (  -0.2651650   0.0883883   0.4419417  )
         5           Si  tau(   5) = (  -0.0883883   0.2651650   0.2651650  )
         6           Si  tau(   6) = (   0.0883883   0.4419417   0.4419417  )
         7           Si  tau(   7) = (  -0.4419417   0.2651650   0.6187184  )
         8           Si  tau(   8) = (  -0.2651650   0.4419417   0.7954951  )
         9           Si  tau(   9) = (  -0.4419417   0.2651650  -0.0883883  )
        10           Si  tau(  10) = (  -0.2651650   0.4419417   0.0883883  )
        11           Si  tau(  11) = (  -0.7954951   0.2651650   0.2651650  )
        12           Si  tau(  12) = (  -0.6187184   0.4419417   0.4419417  )
        13           Si  tau(  13) = (  -0.4419417   0.6187184   0.2651650  )
        14           Si  tau(  14) = (  -0.2651650   0.7954951   0.4419417  )
        15           Si  tau(  15) = (  -0.7954951   0.6187184   0.6187184  )
        16           Si  tau(  16) = (  -0.6187184   0.7954951   0.7954951  )

     number of k points=    10
                       cart. coord. in units 2pi/alat
        k(    1) = (   0.0000000   0.0000000   0.0000000), wk =   0.0740741
        k(    2) = (  -0.2357023   0.2357023  -0.2357023), wk =   0.2962963
        k(    3) = (   0.0000000   0.4714045   0.0000000), wk =   0.2962963
        k(    4) = (   0.4714045  -0.0000000   0.4714045), wk =   0.2962963
        k(    5) = (   0.2357023   0.2357023   0.2357023), wk =   0.1481481
        k(    6) = (  -0.2357023   0.2357023   0.2357023), wk =   0.1481481
        k(    7) = (   0.4714045   0.0000000   0.0000000), wk =   0.1481481
        k(    8) = (   0.4714045   0.0000000  -0.4714045), wk =   0.2962963
        k(    9) = (  -0.0000000   0.4714045  -0.4714045), wk =   0.1481481
        k(   10) = (   0.0000000  -0.4714045  -0.4714045), wk =   0.1481481

     Dense  grid:    47183 G-vectors     FFT dimensions: (  54,  54,  54)

     Estimated max dynamical RAM per process >      71.64 MB

     Estimated total dynamical RAM >     286.57 MB

     Initial potential from superposition of free atoms

     starting charge   63.99206, renormalised to   64.00000
     Starting wfcs are   64 randomized atomic wfcs

     total cpu time spent up to now is        2.6 secs

     Self-consistent Calculation

     iteration #  1     ecut=    30.00 Ry     beta= 0.70
     Davidson diagonalization with overlap
     ethr =  1.00E-02,  avg # of iterations =  2.0

     Threshold (ethr) on eigenvalues was too large:
     Diagonalizing with lowered threshold

     Davidson diagonalization with overlap
     ethr =  8.05E-04,  avg # of iterations =  1.0

     total cpu time spent up to now is        9.8 secs

     total energy              =    -126.77597099 Ry
     Harris-Foulkes estimate   =    -126.94714199 Ry
     estimated scf accuracy    <       0.50311545 Ry

     iteration #  2     ecut=    30.00 Ry     beta= 0.70
     Davidson diagonalization with overlap
     ethr =  7.86E-04,  avg # of iterations =  1.0

     total cpu time spent up to now is       12.6 secs

     total energy              =    -126.80087978 Ry
     Harris-Foulkes estimate   =    -126.80332079 Ry
     estimated scf accuracy    <       0.01760573 Ry

     iteration #  3     ecut=    30.00 Ry     beta= 0.70
     Davidson diagonalization with overlap
     ethr =  2.75E-05,  avg # of iterations =  2.9

     total cpu time spent up to now is       16.3 secs

     total energy              =    -126.80420293 Ry
     Harris-Foulkes estimate   =    -126.80445728 Ry
     estimated scf accuracy    <       0.00059060 Ry

     iteration #  4     ecut=    30.00 Ry     beta= 0.70
     Davidson diagonalization with overlap
     ethr =  9.23E-07,  avg # of iterations =  2.7

     total cpu time spent up to now is       20.3 secs

     total energy              =    -126.80434708 Ry
     Harris-Foulkes estimate   =    -126.80440058 Ry
     estimated scf accuracy    <       0.00012261 Ry

     iteration #  5     ecut=    30.00 Ry     beta= 0.70
     Davidson diagonalization with overlap
     ethr =  1.92E-07,  avg # of iterations =  2.3

     total cpu time spent up to now is       24.4 secs

     total energy              =    -126.80436339 Ry
     Harris-Foulkes estimate   =    -126.80437086 Ry
     estimated scf accuracy    <       0.00001689 Ry

     iteration #  6     ecut=    30.00 Ry     beta= 0.70
     Davidson diagonalization with overlap
     ethr =  2.64E-08,  avg # of iterations =  2.4

     total cpu time spent up to now is       28.7 secs

     total energy              =    -126.80436612 Ry
     Harris-Foulkes estimate   =    -126.80436620 Ry
     estimated scf accuracy    <       0.00000034 Ry

     iteration #  7     ecut=    30.00 Ry     beta= 0.70
     Davidson diagonalization with overlap
     ethr =  5.31E-10,  avg # of iterations =  3.2

     total cpu time spent up to now is       33.1 secs

     total energy              =    -126.80436620 Ry
     Harris-Foulkes estimate   =    -126.80436622 Ry
     estimated scf accuracy    <       0.00000008 Ry

     iteration #  8     ecut=    30.00 Ry     beta= 0.70
     Davidson diagonalization with overlap
     ethr =  1.32E-10,  avg # of iterations =  1.7

     total cpu time spent up to now is       36.1 secs

     total energy              =    -126.80436620 Ry
     Harris-Foulkes estimate   =    -126.80436620 Ry
     estimated scf accuracy    <          7.8E-09 Ry

     iteration #  9     ecut=    30.00 Ry     beta= 0.70
     Davidson diagonalization with overlap
     ethr =  1.22E-11,  avg # of iterations =  3.1

     total cpu time spent up to now is       40.0 secs

     total energy              =    -126.80436620 Ry
     Harris-Foulkes estimate   =    -126.80436620 Ry
     estimated scf accuracy    <          2.0E-10 Ry

     iteration # 10     ecut=    30.00 Ry     beta= 0.70
     Davidson diagonalization with overlap
     ethr =  3.09E-13,  avg # of iterations =  3.3

     total cpu time spent up to now is       43.9 secs

     End of self-consistent calculation

          k = 0.0000 0.0000 0.0000 (  5961 PWs)   bands (ev):

    -5.8156  -3.4302  -3.4272  -3.4200  -3.4171  -1.6164  -1.6087  -1.6024
    -1.5983  -1.5982  -1.5899  -0.8312  -0.8254  -0.8227  -0.8166   3.3254
     3.3307   3.3318   3.3325   3.3341   3.3361   5.0062   5.0171   5.0192
     5.0226   5.0242   5.0247   5.0326   5.0343   6.2290   6.2377   6.2464

          k =-0.2357 0.2357-0.2357 (  5888 PWs)   bands (ev):

    -5.4485  -4.4123  -3.2745  -3.2685  -3.2625  -2.6983  -2.6919  -2.6855
    -0.4390  -0.4312  -0.4241  -0.3381  -0.3314  -0.3242   0.8538   2.5133
     2.5169   2.5210   3.4133   3.4192   3.4244   3.6323   3.6369   3.6390
     3.8478   4.4260   4.4311   4.4343   5.2172   5.2285   5.7736   5.7858

          k = 0.0000 0.4714 0.0000 (  5866 PWs)   bands (ev):

    -5.3238  -3.8802  -3.6733  -3.6697  -3.6633  -3.6596  -1.4807  -1.4719
    -1.4678  -1.4672   0.1779   0.1845   0.1866   0.1933   1.2437   2.4979
     2.5005   2.5021   2.5043   3.1304   3.1346   3.1379   3.1421   3.7720
     3.7768   4.2296   4.9110   4.9181   4.9227   4.9290   5.0179   5.0245

          k = 0.4714-0.0000 0.4714 (  5902 PWs)   bands (ev):

    -4.8495  -4.4979  -4.4892  -3.4881  -3.4814  -2.4810  -2.4722  -2.4666
    -0.6344  -0.6282  -0.5531   0.5958   0.6027   1.7091   1.7853   1.7926
     2.1333   2.1379   2.5168   2.5814   2.5857   3.4087   3.4130   3.7688
     3.8845   3.8933   4.0908   4.2103   4.2175   4.4567   4.4672   5.6720

          k = 0.2357 0.2357 0.2357 (  5888 PWs)   bands (ev):

    -5.4483  -4.4114  -3.2759  -3.2674  -3.2648  -2.6995  -2.6899  -2.6877
    -0.4344  -0.4296  -0.4232  -0.3369  -0.3280  -0.3236   0.8496   2.5091
     2.5157   2.5167   3.4076   3.4180   3.4190   3.6363   3.6367   3.6403
     3.8433   4.4311   4.4318   4.4364   5.2213   5.2278   5.7789   5.7859

          k =-0.2357 0.2357 0.2357 (  5888 PWs)   bands (ev):

    -5.4486  -4.4131  -3.2721  -3.2696  -3.2613  -2.6960  -2.6939  -2.6841
    -0.4402  -0.4325  -0.4282  -0.3382  -0.3353  -0.3259   0.8581   2.5173
     2.5195   2.5241   3.4191   3.4218   3.4282   3.6304   3.6354   3.6372
     3.8524   4.4232   4.4294   4.4311   5.2178   5.2244   5.7735   5.7804

          k = 0.4714 0.0000 0.0000 (  5866 PWs)   bands (ev):

    -5.3238  -3.8802  -3.6786  -3.6636  -3.6625  -3.6613  -1.4826  -1.4736
    -1.4702  -1.4611   0.1740   0.1847   0.1909   0.1927   1.2436   2.4957
     2.4999   2.5025   2.5066   3.1265   3.1362   3.1392   3.1431   3.7744
     3.7745   4.2295   4.9133   4.9215   4.9230   4.9241   5.0208   5.0210

          k = 0.4714 0.0000-0.4714 (  5902 PWs)   bands (ev):

    -4.8502  -4.4981  -4.4894  -3.4864  -3.4797  -2.4848  -2.4715  -2.4639
    -0.6392  -0.6329  -0.5451   0.5885   0.5953   1.7109   1.7874   1.7946
     2.1385   2.1431   2.5255   2.5819   2.5861   3.4060   3.4103   3.7674
     3.8910   3.8997   4.0852   4.2146   4.2220   4.4509   4.4613   5.6622

          k =-0.0000 0.4714-0.4714 (  5902 PWs)   bands (ev):

    -4.8499  -4.4937  -4.4936  -3.4883  -3.4794  -2.4834  -2.4704  -2.4662
    -0.6398  -0.6276  -0.5490   0.5887   0.6025   1.7101   1.7898   1.7899
     2.1376   2.1390   2.5209   2.5822   2.5856   3.4055   3.4134   3.7679
     3.8892   3.8951   4.0881   4.2160   4.2161   4.4590   4.4594   5.6672

          k = 0.0000-0.4714-0.4714 (  5902 PWs)   bands (ev):

    -4.8499  -4.4942  -4.4931  -3.4884  -3.4794  -2.4843  -2.4695  -2.4661
    -0.6339  -0.6336  -0.5489   0.5887   0.6024   1.7099   1.7849   1.7951
     2.1382   2.1383   2.5208   2.5822   2.5856   3.4095   3.4095   3.7678
     3.8893   3.8951   4.0881   4.2101   4.2222   4.4585   4.4596   5.6671

     highest occupied level (ev):     6.2464

!    total energy              =    -126.80436620 Ry
     Harris-Foulkes estimate   =    -126.80436620 Ry
     estimated scf accuracy    <          5.1E-11 Ry

     The total energy is the sum of the following terms:

     one-electron contribution =      38.28190855 Ry
     hartree contribution      =       8.66155476 Ry
     xc contribution           =     -38.55023300 Ry
     ewald contribution        =    -135.19759650 Ry

     convergence has been achieved in  10 iterations

     Forces acting on atoms (cartesian axes, Ry/au):

     atom    1 type  1   force =    -0.00094597   -0.00626281   -0.00139755
     atom    2 type  1   force =     0.00094597    0.00139755    0.00626281
     atom    3 type  1   force =    -0.00005396   -0.00028997    0.00005196
     atom    4 type  1   force =     0.00014616   -0.00005161   -0.00022818
     atom    5 type  1   force =     0.00088985   -0.00071521   -0.00116201
     atom    6 type  1   force =    -0.00088985    0.00116201    0.00071521
     atom    7 type  1   force =     0.00111127    0.00108731   -0.00137324
     atom    8 type  1   force =     0.00089023    0.00136095   -0.00054596
     atom    9 type  1   force =    -0.00014616    0.00022818    0.00005161
     atom   10 type  1   force =     0.00005396   -0.00005196    0.00028997
     atom   11 type  1   force =     0.00005298    0.00012066   -0.00014777
     atom   12 type  1   force =    -0.00005298    0.00014777   -0.00012066
     atom   13 type  1   force =    -0.00089023    0.00054596   -0.00136095
     atom   14 type  1   force =    -0.00111127    0.00137324   -0.00108731
     atom   15 type  1   force =    -0.00005383    0.00000049    0.00005256
     atom   16 type  1   force =     0.00005383   -0.00005256   -0.00000049

     Total force =     0.010216     Total SCF correction =     0.000012


     Computing stress (Cartesian axis) and pressure

          total   stress  (Ry/bohr**3)                   (kbar)     P=        1.58
   0.00001082   0.00000332   0.00000332            1.59        0.49        0.49
   0.00000332   0.00001074   0.00000002            0.49        1.58        0.00
   0.00000332   0.00000002   0.00001074            0.49        0.00        1.58


     Writing output data file ./out/silicon.save/

     init_run     :      2.37s CPU      2.43s WALL (       1 calls)
     electrons    :     40.64s CPU     41.33s WALL (       1 calls)
     forces       :      0.34s CPU      0.34s WALL (       1 calls)
     stress       :      1.08s CPU      1.09s WALL (       1 calls)

     Called by init_run:
     wfcinit      :      2.20s CPU      2.25s WALL (       1 calls)
     potinit      :      0.04s CPU      0.05s WALL (       1 calls)
     hinit0       :      0.09s CPU      0.09s WALL (       1 calls)

     Called by electrons:
     c_bands      :     33.90s CPU     34.46s WALL (      11 calls)
     sum_band     :      6.12s CPU      6.23s WALL (      11 calls)
     v_of_rho     :      0.28s CPU      0.29s WALL (      11 calls)
     mix_rho      :      0.26s CPU      0.26s WALL (      11 calls)

     Called by c_bands:
     init_us_2    :      0.25s CPU      0.26s WALL (      75 calls)
     cegterg      :     31.87s CPU     32.40s WALL (      33 calls)

     Called by sum_band:

     Called by *egterg:
     h_psi        :     31.01s CPU     31.50s WALL (     122 calls)
     g_psi        :      0.08s CPU      0.08s WALL (      86 calls)
     cdiaghg      :      0.39s CPU      0.39s WALL (     116 calls)

     Called by h_psi:
     h_psi:calbec :      0.70s CPU      0.71s WALL (     122 calls)
     vloc_psi     :     29.52s CPU     29.97s WALL (     122 calls)
     add_vuspsi   :      0.68s CPU      0.69s WALL (     122 calls)

     General routines
     calbec       :      0.80s CPU      0.82s WALL (     137 calls)
     fft          :      0.28s CPU      0.28s WALL (      38 calls)
     ffts         :      0.08s CPU      0.08s WALL (      11 calls)
     fftw         :     30.89s CPU     31.37s WALL (    7124 calls)

     Parallel routines

     PWSCF        :     44.59s CPU     45.36s WALL


   This run was terminated on:  14:58:30   2Nov2020            

=------------------------------------------------------------------------------=
   JOB DONE.
=------------------------------------------------------------------------------=
