
     Program PWSCF v.6.5 starts on  2Nov2020 at 15: 6:10 

     This program is part of the open-source Quantum ESPRESSO suite
     for quantum simulation of materials; please cite
         "P. Giannozzi et al., J. Phys.:Condens. Matter 21 395502 (2009);
         "P. Giannozzi et al., J. Phys.:Condens. Matter 29 465901 (2017);
          URL http://www.quantum-espresso.org", 
     in publications or presentations arising from this work. More details at
     http://www.quantum-espresso.org/quote

     Parallel version (MPI), running on     4 processors

     MPI processes distributed on     1 nodes
     K-points division:     npool     =       4
     Reading input from DISP.supercell_template.in.64

     Current dimensions of program PWSCF are:
     Max number of different atomic species (ntypx) = 10
     Max number of k-points (npk) =  40000
     Max angular momentum in pseudopotentials (lmaxx) =  3

     Subspace diagonalization in iterative solution of the eigenvalue problem:
     a serial algorithm will be used

     Message from routine setup:
     using ibrav=0 with symmetry is DISCOURAGED, use correct ibrav instead

     G-vector sticks info
     --------------------
     sticks:   dense  smooth     PW     G-vecs:    dense   smooth      PW
     Sum        1723    1723    475                47183    47183    6855



     bravais-lattice index     =            0
     lattice parameter (alat)  =      14.4250  a.u.
     unit-cell volume          =    2122.4160 (a.u.)^3
     number of atoms/cell      =           16
     number of atomic types    =            1
     number of electrons       =        64.00
     number of Kohn-Sham states=           32
     kinetic-energy cutoff     =      30.0000  Ry
     charge density cutoff     =     120.0000  Ry
     convergence threshold     =      1.0E-10
     mixing beta               =       0.7000
     number of iterations used =            8  plain     mixing
     Exchange-correlation= SLA PZ NOGX NOGC
                           (   1   1   0   0   0   0   0)

     celldm(1)=  14.424978  celldm(2)=   0.000000  celldm(3)=   0.000000
     celldm(4)=   0.000000  celldm(5)=   0.000000  celldm(6)=   0.000000

     crystal axes: (cart. coord. in units of alat)
               a(1) = (  -0.707107   0.000000   0.707107 )  
               a(2) = (   0.000000   0.707107   0.707107 )  
               a(3) = (  -0.707107   0.707107   0.000000 )  

     reciprocal axes: (cart. coord. in units 2 pi/alat)
               b(1) = ( -0.707107 -0.707107  0.707107 )  
               b(2) = (  0.707107  0.707107  0.707107 )  
               b(3) = ( -0.707107  0.707107 -0.707107 )  


     PseudoPot. # 1 for Si read from file:
     ../../pseudoPotentials/Si.pz-vbc.UPF
     MD5 check sum: 9f25e6ff280f3123e9b3a84715b2e9c9
     Pseudo is Norm-conserving, Zval =  4.0
     Generated by new atomic code, or converted to UPF format
     Using radial grid of  431 points,  2 beta functions with: 
                l(1) =   0
                l(2) =   1

     atomic species   valence    mass     pseudopotential
        Si             4.00    28.08600     Si( 1.00)

      4 Sym. Ops. (no inversion) found ( 2 have fractional translation)



   Cartesian axes

     site n.     atom                  positions (alat units)
         1           Si  tau(   1) = (  -0.0883883  -0.0870783  -0.0883883  )
         2           Si  tau(   2) = (   0.0883883   0.0883883   0.0883883  )
         3           Si  tau(   3) = (  -0.4419417  -0.0896984   0.2651650  )
         4           Si  tau(   4) = (  -0.2651650   0.0883883   0.4419417  )
         5           Si  tau(   5) = (  -0.0883883   0.2651650   0.2651650  )
         6           Si  tau(   6) = (   0.0883883   0.4419417   0.4419417  )
         7           Si  tau(   7) = (  -0.4419417   0.2651650   0.6187184  )
         8           Si  tau(   8) = (  -0.2651650   0.4419417   0.7954951  )
         9           Si  tau(   9) = (  -0.4419417   0.2651650  -0.0883883  )
        10           Si  tau(  10) = (  -0.2651650   0.4419417   0.0883883  )
        11           Si  tau(  11) = (  -0.7954951   0.2651650   0.2651650  )
        12           Si  tau(  12) = (  -0.6187184   0.4419417   0.4419417  )
        13           Si  tau(  13) = (  -0.4419417   0.6187184   0.2651650  )
        14           Si  tau(  14) = (  -0.2651650   0.7954951   0.4419417  )
        15           Si  tau(  15) = (  -0.7954951   0.6187184   0.6187184  )
        16           Si  tau(  16) = (  -0.6187184   0.7954951   0.7954951  )

     number of k points=     8
                       cart. coord. in units 2pi/alat
        k(    1) = (   0.0000000   0.0000000   0.0000000), wk =   0.0740741
        k(    2) = (  -0.2357023   0.2357023  -0.2357023), wk =   0.2962963
        k(    3) = (   0.0000000   0.4714045   0.0000000), wk =   0.1481481
        k(    4) = (   0.4714045  -0.0000000   0.4714045), wk =   0.1481481
        k(    5) = (  -0.2357023   0.2357023   0.2357023), wk =   0.2962963
        k(    6) = (   0.4714045   0.0000000   0.0000000), wk =   0.2962963
        k(    7) = (  -0.0000000   0.4714045  -0.4714045), wk =   0.5925926
        k(    8) = (   0.4714045  -0.0000000  -0.4714045), wk =   0.1481481

     Dense  grid:    47183 G-vectors     FFT dimensions: (  54,  60,  60)

     Estimated max dynamical RAM per process >      71.30 MB

     Estimated total dynamical RAM >     285.21 MB

     Initial potential from superposition of free atoms

     starting charge   63.99206, renormalised to   64.00000
     Starting wfcs are   64 randomized atomic wfcs

     total cpu time spent up to now is        2.2 secs

     Self-consistent Calculation

     iteration #  1     ecut=    30.00 Ry     beta= 0.70
     Davidson diagonalization with overlap
     ethr =  1.00E-02,  avg # of iterations =  2.0

     Threshold (ethr) on eigenvalues was too large:
     Diagonalizing with lowered threshold

     Davidson diagonalization with overlap
     ethr =  8.05E-04,  avg # of iterations =  1.0

     total cpu time spent up to now is        9.0 secs

     total energy              =    -126.77599830 Ry
     Harris-Foulkes estimate   =    -126.94716265 Ry
     estimated scf accuracy    <       0.50310836 Ry

     iteration #  2     ecut=    30.00 Ry     beta= 0.70
     Davidson diagonalization with overlap
     ethr =  7.86E-04,  avg # of iterations =  1.0

     total cpu time spent up to now is       11.9 secs

     total energy              =    -126.80090372 Ry
     Harris-Foulkes estimate   =    -126.80334329 Ry
     estimated scf accuracy    <       0.01760437 Ry

     iteration #  3     ecut=    30.00 Ry     beta= 0.70
     Davidson diagonalization with overlap
     ethr =  2.75E-05,  avg # of iterations =  2.9

     total cpu time spent up to now is       15.7 secs

     total energy              =    -126.80422739 Ry
     Harris-Foulkes estimate   =    -126.80447864 Ry
     estimated scf accuracy    <       0.00058682 Ry

     iteration #  4     ecut=    30.00 Ry     beta= 0.70
     Davidson diagonalization with overlap
     ethr =  9.17E-07,  avg # of iterations =  2.6

     total cpu time spent up to now is       19.8 secs

     total energy              =    -126.80437412 Ry
     Harris-Foulkes estimate   =    -126.80442006 Ry
     estimated scf accuracy    <       0.00010422 Ry

     iteration #  5     ecut=    30.00 Ry     beta= 0.70
     Davidson diagonalization with overlap
     ethr =  1.63E-07,  avg # of iterations =  2.2

     total cpu time spent up to now is       23.6 secs

     total energy              =    -126.80438748 Ry
     Harris-Foulkes estimate   =    -126.80439473 Ry
     estimated scf accuracy    <       0.00001652 Ry

     iteration #  6     ecut=    30.00 Ry     beta= 0.70
     Davidson diagonalization with overlap
     ethr =  2.58E-08,  avg # of iterations =  2.1

     total cpu time spent up to now is       26.8 secs

     total energy              =    -126.80439022 Ry
     Harris-Foulkes estimate   =    -126.80439033 Ry
     estimated scf accuracy    <       0.00000035 Ry

     iteration #  7     ecut=    30.00 Ry     beta= 0.70
     Davidson diagonalization with overlap
     ethr =  5.52E-10,  avg # of iterations =  3.4

     total cpu time spent up to now is       31.0 secs

     total energy              =    -126.80439032 Ry
     Harris-Foulkes estimate   =    -126.80439033 Ry
     estimated scf accuracy    <       0.00000005 Ry

     iteration #  8     ecut=    30.00 Ry     beta= 0.70
     Davidson diagonalization with overlap
     ethr =  7.71E-11,  avg # of iterations =  1.8

     total cpu time spent up to now is       34.1 secs

     total energy              =    -126.80439032 Ry
     Harris-Foulkes estimate   =    -126.80439032 Ry
     estimated scf accuracy    <          4.8E-09 Ry

     iteration #  9     ecut=    30.00 Ry     beta= 0.70
     Davidson diagonalization with overlap
     ethr =  7.49E-12,  avg # of iterations =  3.0

     total cpu time spent up to now is       37.6 secs

     total energy              =    -126.80439032 Ry
     Harris-Foulkes estimate   =    -126.80439032 Ry
     estimated scf accuracy    <          1.1E-10 Ry

     iteration # 10     ecut=    30.00 Ry     beta= 0.70
     Davidson diagonalization with overlap
     ethr =  1.79E-13,  avg # of iterations =  3.6

     total cpu time spent up to now is       41.8 secs

     End of self-consistent calculation

          k = 0.0000 0.0000 0.0000 (  5961 PWs)   bands (ev):

    -5.8156  -3.4236  -3.4236  -3.4236  -3.4235  -1.6164  -1.6023  -1.6023
    -1.6023  -1.6022  -1.5883  -0.8241  -0.8240  -0.8240  -0.8238   3.3285
     3.3285   3.3318   3.3318   3.3350   3.3350   5.0152   5.0153   5.0226
     5.0226   5.0226   5.0227   5.0299   5.0299   6.2376   6.2377   6.2379

          k =-0.2357 0.2357-0.2357 (  5888 PWs)   bands (ev):

    -5.4485  -4.4122  -3.2725  -3.2684  -3.2646  -2.6979  -2.6919  -2.6858
    -0.4359  -0.4310  -0.4264  -0.3391  -0.3317  -0.3239   0.8538   2.5129
     2.5171   2.5211   3.4142   3.4189   3.4237   3.6336   3.6361   3.6386
     3.8479   4.4271   4.4306   4.4339   5.2229   5.2229   5.7796   5.7797

          k = 0.0000 0.4714 0.0000 (  5866 PWs)   bands (ev):

    -5.3237  -3.8803  -3.6665  -3.6665  -3.6665  -3.6662  -1.4720  -1.4719
    -1.4719  -1.4719   0.1855   0.1856   0.1856   0.1857   1.2437   2.5012
     2.5012   2.5012   2.5013   3.1362   3.1363   3.1363   3.1364   3.7743
     3.7745   4.2297   4.9184   4.9204   4.9204   4.9204   5.0207   5.0228

          k = 0.4714-0.0000 0.4714 (  5902 PWs)   bands (ev):

    -4.8498  -4.4938  -4.4936  -3.4838  -3.4838  -2.4824  -2.4695  -2.4682
    -0.6337  -0.6336  -0.5491   0.5955   0.5956   1.7100   1.7899   1.7900
     2.1379   2.1382   2.5216   2.5836   2.5838   3.4095   3.4096   3.7683
     3.8916   3.8921   4.0881   4.2160   4.2165   4.4590   4.4590   5.6670

          k =-0.2357 0.2357 0.2357 (  5888 PWs)   bands (ev):

    -5.4485  -4.4122  -3.2725  -3.2685  -3.2645  -2.6979  -2.6919  -2.6858
    -0.4366  -0.4314  -0.4270  -0.3384  -0.3313  -0.3233   0.8538   2.5130
     2.5171   2.5212   3.4142   3.4190   3.4238   3.6335   3.6361   3.6385
     3.8478   4.4271   4.4305   4.4339   5.2226   5.2229   5.7796   5.7799

          k = 0.4714 0.0000 0.0000 (  5866 PWs)   bands (ev):

    -5.3237  -3.8802  -3.6706  -3.6705  -3.6624  -3.6623  -1.4803  -1.4755
    -1.4683  -1.4635   0.1801   0.1802   0.1909   0.1910   1.2437   2.4969
     2.5010   2.5014   2.5054   3.1329   3.1330   3.1396   3.1396   3.7744
     3.7745   4.2296   4.9175   4.9176   4.9233   4.9234   5.0208   5.0210

          k =-0.0000 0.4714-0.4714 (  5902 PWs)   bands (ev):

    -4.8498  -4.4937  -4.4936  -3.4883  -3.4794  -2.4829  -2.4694  -2.4676
    -0.6337  -0.6336  -0.5491   0.5887   0.6024   1.7099   1.7899   1.7902
     2.1381   2.1382   2.5213   2.5817   2.5856   3.4094   3.4095   3.7681
     3.8891   3.8951   4.0881   4.2160   4.2162   4.4591   4.4591   5.6671

          k = 0.4714-0.0000-0.4714 (  5902 PWs)   bands (ev):

    -4.8499  -4.4936  -4.4935  -3.4839  -3.4839  -2.4810  -2.4695  -2.4695
    -0.6338  -0.6336  -0.5492   0.5956   0.5957   1.7100   1.7900   1.7901
     2.1382   2.1382   2.5212   2.5837   2.5838   3.4095   3.4096   3.7682
     3.8921   3.8921   4.0876   4.2160   4.2161   4.4589   4.4592   5.6672

     highest occupied level (ev):     6.2379

!    total energy              =    -126.80439032 Ry
     Harris-Foulkes estimate   =    -126.80439032 Ry
     estimated scf accuracy    <          5.6E-11 Ry

     The total energy is the sum of the following terms:

     one-electron contribution =      38.28212663 Ry
     hartree contribution      =       8.66145771 Ry
     xc contribution           =     -38.55022086 Ry
     ewald contribution        =    -135.19775379 Ry

     convergence has been achieved in  10 iterations

     Forces acting on atoms (cartesian axes, Ry/au):

     atom    1 type  1   force =     0.00000000   -0.00498288    0.00000000
     atom    2 type  1   force =     0.00096644    0.00142592    0.00096644
     atom    3 type  1   force =     0.00000000    0.00498319    0.00000000
     atom    4 type  1   force =    -0.00094407   -0.00141430   -0.00094407
     atom    5 type  1   force =    -0.00019947    0.00000016    0.00020030
     atom    6 type  1   force =    -0.00180273   -0.00001173    0.00180273
     atom    7 type  1   force =     0.00020030    0.00000016   -0.00019947
     atom    8 type  1   force =     0.00180273   -0.00001173   -0.00180273
     atom    9 type  1   force =    -0.00020030    0.00000016    0.00019947
     atom   10 type  1   force =     0.00010774   -0.00000012   -0.00010774
     atom   11 type  1   force =     0.00019947    0.00000016   -0.00020030
     atom   12 type  1   force =    -0.00010774   -0.00000012    0.00010774
     atom   13 type  1   force =     0.00000000   -0.00039861    0.00000000
     atom   14 type  1   force =    -0.00096644    0.00142592   -0.00096644
     atom   15 type  1   force =    -0.00000000    0.00039812   -0.00000000
     atom   16 type  1   force =     0.00094407   -0.00141430    0.00094407

     Total force =     0.008872     Total SCF correction =     0.000014


     Computing stress (Cartesian axis) and pressure

          total   stress  (Ry/bohr**3)                   (kbar)     P=        1.58
   0.00001078   0.00000000   0.00000000            1.59        0.00        0.00
   0.00000000   0.00001066  -0.00000000            0.00        1.57       -0.00
   0.00000000  -0.00000000   0.00001078            0.00       -0.00        1.59


     Writing output data file ./out/silicon.save/

     init_run     :      2.08s CPU      2.13s WALL (       1 calls)
     electrons    :     38.84s CPU     39.62s WALL (       1 calls)
     forces       :      0.30s CPU      0.30s WALL (       1 calls)
     stress       :      0.68s CPU      0.68s WALL (       1 calls)

     Called by init_run:
     wfcinit      :      1.90s CPU      1.92s WALL (       1 calls)
     potinit      :      0.05s CPU      0.06s WALL (       1 calls)
     hinit0       :      0.09s CPU      0.09s WALL (       1 calls)

     Called by electrons:
     c_bands      :     31.49s CPU     32.17s WALL (      11 calls)
     sum_band     :      6.55s CPU      6.63s WALL (      11 calls)
     v_of_rho     :      0.31s CPU      0.33s WALL (      11 calls)
     mix_rho      :      0.27s CPU      0.28s WALL (      11 calls)

     Called by c_bands:
     init_us_2    :      0.18s CPU      0.20s WALL (      50 calls)
     cegterg      :     27.96s CPU     28.60s WALL (      22 calls)

     Called by sum_band:

     Called by *egterg:
     h_psi        :     27.58s CPU     28.15s WALL (      85 calls)
     g_psi        :      0.06s CPU      0.07s WALL (      61 calls)
     cdiaghg      :      0.29s CPU      0.30s WALL (      81 calls)

     Called by h_psi:
     h_psi:calbec :      0.52s CPU      0.53s WALL (      85 calls)
     vloc_psi     :     26.48s CPU     26.99s WALL (      85 calls)
     add_vuspsi   :      0.49s CPU      0.50s WALL (      85 calls)

     General routines
     calbec       :      0.60s CPU      0.60s WALL (      95 calls)
     fft          :      0.36s CPU      0.37s WALL (      38 calls)
     ffts         :      0.07s CPU      0.07s WALL (      11 calls)
     fftw         :     27.62s CPU     28.14s WALL (    4820 calls)

     Parallel routines

     PWSCF        :     42.02s CPU     42.87s WALL


   This run was terminated on:  15: 6:53   2Nov2020            

=------------------------------------------------------------------------------=
   JOB DONE.
=------------------------------------------------------------------------------=
