
     Program PWSCF v.6.5 starts on  2Nov2020 at 14:28: 7 

     This program is part of the open-source Quantum ESPRESSO suite
     for quantum simulation of materials; please cite
         "P. Giannozzi et al., J. Phys.:Condens. Matter 21 395502 (2009);
         "P. Giannozzi et al., J. Phys.:Condens. Matter 29 465901 (2017);
          URL http://www.quantum-espresso.org", 
     in publications or presentations arising from this work. More details at
     http://www.quantum-espresso.org/quote

     Parallel version (MPI), running on     4 processors

     MPI processes distributed on     1 nodes
     K-points division:     npool     =       4
     Reading input from DISP.supercell_template.in.20

     Current dimensions of program PWSCF are:
     Max number of different atomic species (ntypx) = 10
     Max number of k-points (npk) =  40000
     Max angular momentum in pseudopotentials (lmaxx) =  3

     Subspace diagonalization in iterative solution of the eigenvalue problem:
     a serial algorithm will be used

     Message from routine setup:
     using ibrav=0 with symmetry is DISCOURAGED, use correct ibrav instead

     G-vector sticks info
     --------------------
     sticks:   dense  smooth     PW     G-vecs:    dense   smooth      PW
     Sum        1723    1723    475                47183    47183    6855



     bravais-lattice index     =            0
     lattice parameter (alat)  =      14.4250  a.u.
     unit-cell volume          =    2122.4160 (a.u.)^3
     number of atoms/cell      =           16
     number of atomic types    =            1
     number of electrons       =        64.00
     number of Kohn-Sham states=           32
     kinetic-energy cutoff     =      30.0000  Ry
     charge density cutoff     =     120.0000  Ry
     convergence threshold     =      1.0E-10
     mixing beta               =       0.7000
     number of iterations used =            8  plain     mixing
     Exchange-correlation= SLA PZ NOGX NOGC
                           (   1   1   0   0   0   0   0)

     celldm(1)=  14.424978  celldm(2)=   0.000000  celldm(3)=   0.000000
     celldm(4)=   0.000000  celldm(5)=   0.000000  celldm(6)=   0.000000

     crystal axes: (cart. coord. in units of alat)
               a(1) = (  -0.707107   0.000000   0.707107 )  
               a(2) = (   0.000000   0.707107   0.707107 )  
               a(3) = (  -0.707107   0.707107   0.000000 )  

     reciprocal axes: (cart. coord. in units 2 pi/alat)
               b(1) = ( -0.707107 -0.707107  0.707107 )  
               b(2) = (  0.707107  0.707107  0.707107 )  
               b(3) = ( -0.707107  0.707107 -0.707107 )  


     PseudoPot. # 1 for Si read from file:
     ../../pseudoPotentials/Si.pz-vbc.UPF
     MD5 check sum: 9f25e6ff280f3123e9b3a84715b2e9c9
     Pseudo is Norm-conserving, Zval =  4.0
     Generated by new atomic code, or converted to UPF format
     Using radial grid of  431 points,  2 beta functions with: 
                l(1) =   0
                l(2) =   1

     atomic species   valence    mass     pseudopotential
        Si             4.00    28.08600     Si( 1.00)

      2 Sym. Ops. (no inversion) found



   Cartesian axes

     site n.     atom                  positions (alat units)
         1           Si  tau(   1) = (  -0.0870783  -0.0883883  -0.0870783  )
         2           Si  tau(   2) = (   0.0883883   0.0883883   0.0883883  )
         3           Si  tau(   3) = (  -0.4419417  -0.0883883   0.2651650  )
         4           Si  tau(   4) = (  -0.2651650   0.0883883   0.4419417  )
         5           Si  tau(   5) = (  -0.0883883   0.2651650   0.2651650  )
         6           Si  tau(   6) = (   0.0883883   0.4419417   0.4419417  )
         7           Si  tau(   7) = (  -0.4419417   0.2651650   0.6187184  )
         8           Si  tau(   8) = (  -0.2651650   0.4419417   0.7954951  )
         9           Si  tau(   9) = (  -0.4419417   0.2651650  -0.0883883  )
        10           Si  tau(  10) = (  -0.2651650   0.4419417   0.0883883  )
        11           Si  tau(  11) = (  -0.7954951   0.2651650   0.2651650  )
        12           Si  tau(  12) = (  -0.6187184   0.4419417   0.4419417  )
        13           Si  tau(  13) = (  -0.4419417   0.6187184   0.2651650  )
        14           Si  tau(  14) = (  -0.2651650   0.7954951   0.4419417  )
        15           Si  tau(  15) = (  -0.7954951   0.6187184   0.6187184  )
        16           Si  tau(  16) = (  -0.6187184   0.7954951   0.7954951  )

     number of k points=    10
                       cart. coord. in units 2pi/alat
        k(    1) = (   0.0000000   0.0000000   0.0000000), wk =   0.0740741
        k(    2) = (  -0.2357023   0.2357023  -0.2357023), wk =   0.1481481
        k(    3) = (   0.0000000   0.4714045   0.0000000), wk =   0.1481481
        k(    4) = (   0.4714045  -0.0000000   0.4714045), wk =   0.1481481
        k(    5) = (   0.2357023   0.2357023   0.2357023), wk =   0.1481481
        k(    6) = (  -0.2357023  -0.2357023   0.2357023), wk =   0.2962963
        k(    7) = (   0.4714045   0.0000000   0.0000000), wk =   0.2962963
        k(    8) = (   0.4714045   0.0000000  -0.4714045), wk =   0.1481481
        k(    9) = (  -0.0000000   0.4714045  -0.4714045), wk =   0.2962963
        k(   10) = (   0.0000000  -0.4714045  -0.4714045), wk =   0.2962963

     Dense  grid:    47183 G-vectors     FFT dimensions: (  54,  54,  54)

     Estimated max dynamical RAM per process >      71.64 MB

     Estimated total dynamical RAM >     286.57 MB

     Initial potential from superposition of free atoms

     starting charge   63.99206, renormalised to   64.00000
     Starting wfcs are   64 randomized atomic wfcs

     total cpu time spent up to now is        2.7 secs

     Self-consistent Calculation

     iteration #  1     ecut=    30.00 Ry     beta= 0.70
     Davidson diagonalization with overlap
     ethr =  1.00E-02,  avg # of iterations =  2.0

     Threshold (ethr) on eigenvalues was too large:
     Diagonalizing with lowered threshold

     Davidson diagonalization with overlap
     ethr =  8.05E-04,  avg # of iterations =  1.0

     total cpu time spent up to now is       10.3 secs

     total energy              =    -126.77599871 Ry
     Harris-Foulkes estimate   =    -126.94715430 Ry
     estimated scf accuracy    <       0.50308337 Ry

     iteration #  2     ecut=    30.00 Ry     beta= 0.70
     Davidson diagonalization with overlap
     ethr =  7.86E-04,  avg # of iterations =  1.0

     total cpu time spent up to now is       13.4 secs

     total energy              =    -126.80090125 Ry
     Harris-Foulkes estimate   =    -126.80334133 Ry
     estimated scf accuracy    <       0.01760493 Ry

     iteration #  3     ecut=    30.00 Ry     beta= 0.70
     Davidson diagonalization with overlap
     ethr =  2.75E-05,  avg # of iterations =  2.9

     total cpu time spent up to now is       17.4 secs

     total energy              =    -126.80422152 Ry
     Harris-Foulkes estimate   =    -126.80447264 Ry
     estimated scf accuracy    <       0.00058670 Ry

     iteration #  4     ecut=    30.00 Ry     beta= 0.70
     Davidson diagonalization with overlap
     ethr =  9.17E-07,  avg # of iterations =  2.7

     total cpu time spent up to now is       21.8 secs

     total energy              =    -126.80436743 Ry
     Harris-Foulkes estimate   =    -126.80441327 Ry
     estimated scf accuracy    <       0.00010396 Ry

     iteration #  5     ecut=    30.00 Ry     beta= 0.70
     Davidson diagonalization with overlap
     ethr =  1.62E-07,  avg # of iterations =  2.4

     total cpu time spent up to now is       25.7 secs

     total energy              =    -126.80438084 Ry
     Harris-Foulkes estimate   =    -126.80438800 Ry
     estimated scf accuracy    <       0.00001630 Ry

     iteration #  6     ecut=    30.00 Ry     beta= 0.70
     Davidson diagonalization with overlap
     ethr =  2.55E-08,  avg # of iterations =  2.2

     total cpu time spent up to now is       29.6 secs

     total energy              =    -126.80438358 Ry
     Harris-Foulkes estimate   =    -126.80438367 Ry
     estimated scf accuracy    <       0.00000036 Ry

     iteration #  7     ecut=    30.00 Ry     beta= 0.70
     Davidson diagonalization with overlap
     ethr =  5.62E-10,  avg # of iterations =  3.2

     total cpu time spent up to now is       34.3 secs

     total energy              =    -126.80438366 Ry
     Harris-Foulkes estimate   =    -126.80438368 Ry
     estimated scf accuracy    <       0.00000008 Ry

     iteration #  8     ecut=    30.00 Ry     beta= 0.70
     Davidson diagonalization with overlap
     ethr =  1.21E-10,  avg # of iterations =  1.8

     total cpu time spent up to now is       37.4 secs

     total energy              =    -126.80438366 Ry
     Harris-Foulkes estimate   =    -126.80438366 Ry
     estimated scf accuracy    <          4.1E-09 Ry

     iteration #  9     ecut=    30.00 Ry     beta= 0.70
     Davidson diagonalization with overlap
     ethr =  6.37E-12,  avg # of iterations =  3.3

     total cpu time spent up to now is       42.2 secs

     total energy              =    -126.80438366 Ry
     Harris-Foulkes estimate   =    -126.80438366 Ry
     estimated scf accuracy    <          1.0E-10 Ry

     iteration # 10     ecut=    30.00 Ry     beta= 0.70
     Davidson diagonalization with overlap
     ethr =  1.62E-13,  avg # of iterations =  3.2

     total cpu time spent up to now is       47.0 secs

     End of self-consistent calculation

          k = 0.0000 0.0000 0.0000 (  5961 PWs)   bands (ev):

    -5.8156  -3.4310  -3.4235  -3.4235  -3.4163  -1.6151  -1.6033  -1.6023
    -1.6022  -1.6012  -1.5897  -0.8314  -0.8241  -0.8240  -0.8164   3.3266
     3.3312   3.3318   3.3318   3.3324   3.3370   5.0074   5.0185   5.0214
     5.0214   5.0238   5.0238   5.0268   5.0378   6.2291   6.2376   6.2465

          k =-0.2357 0.2357-0.2357 (  5888 PWs)   bands (ev):

    -5.4486  -4.4131  -3.2722  -3.2684  -3.2625  -2.6958  -2.6918  -2.6864
    -0.4392  -0.4314  -0.4301  -0.3375  -0.3323  -0.3298   0.8581   2.5179
     2.5191   2.5239   3.4186   3.4211   3.4293   3.6318   3.6354   3.6359
     3.8526   4.4246   4.4292   4.4298   5.2178   5.2244   5.7736   5.7804

          k = 0.0000 0.4714 0.0000 (  5866 PWs)   bands (ev):

    -5.3238  -3.8802  -3.6756  -3.6665  -3.6665  -3.6574  -1.4806  -1.4724
    -1.4713  -1.4631   0.1768   0.1856   0.1856   0.1943   1.2436   2.4973
     2.4986   2.5037   2.5051   3.1282   3.1363   3.1363   3.1443   3.7744
     3.7745   4.2296   4.9153   4.9203   4.9207   4.9255   5.0208   5.0210

          k = 0.4714-0.0000 0.4714 (  5902 PWs)   bands (ev):

    -4.8499  -4.4941  -4.4931  -3.4840  -3.4838  -2.4831  -2.4695  -2.4673
    -0.6338  -0.6336  -0.5490   0.5956   0.5956   1.7097   1.7849   1.7953
     2.1381   2.1383   2.5207   2.5836   2.5843   3.4094   3.4095   3.7677
     3.8920   3.8925   4.0880   4.2101   4.2223   4.4584   4.4596   5.6671

          k = 0.2357 0.2357 0.2357 (  5888 PWs)   bands (ev):

    -5.4483  -4.4114  -3.2747  -3.2685  -3.2649  -2.6973  -2.6920  -2.6879
    -0.4321  -0.4306  -0.4240  -0.3334  -0.3309  -0.3246   0.8496   2.5102
     2.5150   2.5163   3.4086   3.4168   3.4192   3.6362   3.6368   3.6402
     3.8433   4.4311   4.4319   4.4364   5.2213   5.2278   5.7788   5.7860

          k =-0.2357-0.2357 0.2357 (  5888 PWs)   bands (ev):

    -5.4485  -4.4123  -3.2745  -3.2684  -3.2626  -2.6983  -2.6919  -2.6854
    -0.4389  -0.4311  -0.4245  -0.3381  -0.3316  -0.3238   0.8538   2.5139
     2.5171   2.5202   3.4146   3.4190   3.4233   3.6326   3.6360   3.6396
     3.8478   4.4265   4.4305   4.4346   5.2172   5.2285   5.7736   5.7858

          k = 0.4714 0.0000 0.0000 (  5866 PWs)   bands (ev):

    -5.3238  -3.8802  -3.6740  -3.6672  -3.6657  -3.6589  -1.4796  -1.4719
    -1.4718  -1.4643   0.1778   0.1849   0.1863   0.1934   1.2437   2.4980
     2.5004   2.5021   2.5044   3.1302   3.1357   3.1369   3.1424   3.7720
     3.7768   4.2296   4.9108   4.9196   4.9212   4.9292   5.0179   5.0248

          k = 0.4714 0.0000-0.4714 (  5902 PWs)   bands (ev):

    -4.8498  -4.4938  -4.4936  -3.4883  -3.4793  -2.4827  -2.4718  -2.4655
    -0.6398  -0.6275  -0.5491   0.5887   0.6024   1.7101   1.7898   1.7900
     2.1376   2.1390   2.5210   2.5819   2.5858   3.4055   3.4132   3.7682
     3.8891   3.8951   4.0881   4.2160   4.2160   4.4590   4.4594   5.6672

          k =-0.0000 0.4714-0.4714 (  5902 PWs)   bands (ev):

    -4.8502  -4.4981  -4.4895  -3.4864  -3.4797  -2.4843  -2.4714  -2.4644
    -0.6392  -0.6329  -0.5451   0.5885   0.5954   1.7108   1.7874   1.7946
     2.1385   2.1431   2.5254   2.5821   2.5861   3.4060   3.4103   3.7674
     3.8908   3.8997   4.0852   4.2146   4.2221   4.4509   4.4614   5.6622

          k = 0.0000-0.4714-0.4714 (  5902 PWs)   bands (ev):

    -4.8495  -4.4978  -4.4892  -3.4880  -3.4814  -2.4807  -2.4727  -2.4663
    -0.6344  -0.6282  -0.5531   0.5958   0.6027   1.7091   1.7853   1.7927
     2.1333   2.1379   2.5170   2.5815   2.5855   3.4087   3.4130   3.7689
     3.8845   3.8933   4.0907   4.2103   4.2175   4.4566   4.4674   5.6720

     highest occupied level (ev):     6.2465

!    total energy              =    -126.80438366 Ry
     Harris-Foulkes estimate   =    -126.80438366 Ry
     estimated scf accuracy    <          3.2E-11 Ry

     The total energy is the sum of the following terms:

     one-electron contribution =      38.28209216 Ry
     hartree contribution      =       8.66147325 Ry
     xc contribution           =     -38.55021941 Ry
     ewald contribution        =    -135.19772967 Ry

     convergence has been achieved in  10 iterations

     Forces acting on atoms (cartesian axes, Ry/au):

     atom    1 type  1   force =    -0.00532749   -0.00012541   -0.00532749
     atom    2 type  1   force =     0.00231029    0.00185865    0.00231029
     atom    3 type  1   force =    -0.00002545   -0.00000082   -0.00002545
     atom    4 type  1   force =     0.00000142   -0.00010761    0.00000142
     atom    5 type  1   force =    -0.00034329    0.00019862    0.00017498
     atom    6 type  1   force =     0.00046115    0.00000914    0.00047207
     atom    7 type  1   force =     0.00017498    0.00019862   -0.00034329
     atom    8 type  1   force =     0.00047207    0.00000914    0.00046115
     atom    9 type  1   force =     0.00017378   -0.00020104   -0.00034431
     atom   10 type  1   force =    -0.00010592   -0.00000019   -0.00010642
     atom   11 type  1   force =    -0.00034431   -0.00020104    0.00017378
     atom   12 type  1   force =    -0.00010642   -0.00000019   -0.00010592
     atom   13 type  1   force =     0.00037420    0.00000168    0.00037420
     atom   14 type  1   force =     0.00222862   -0.00174801    0.00222862
     atom   15 type  1   force =     0.00005454    0.00000048    0.00005454
     atom   16 type  1   force =     0.00000182    0.00010794    0.00000182

     Total force =     0.009267     Total SCF correction =     0.000010


     Computing stress (Cartesian axis) and pressure

          total   stress  (Ry/bohr**3)                   (kbar)     P=        1.58
   0.00001072   0.00000329   0.00000008            1.58        0.48        0.01
   0.00000329   0.00001079   0.00000329            0.48        1.59        0.48
   0.00000008   0.00000329   0.00001072            0.01        0.48        1.58


     Writing output data file ./out/silicon.save/

     init_run     :      2.49s CPU      2.58s WALL (       1 calls)
     electrons    :     43.65s CPU     44.39s WALL (       1 calls)
     forces       :      0.39s CPU      0.39s WALL (       1 calls)
     stress       :      1.07s CPU      1.07s WALL (       1 calls)

     Called by init_run:
     wfcinit      :      2.30s CPU      2.37s WALL (       1 calls)
     potinit      :      0.05s CPU      0.05s WALL (       1 calls)
     hinit0       :      0.10s CPU      0.11s WALL (       1 calls)

     Called by electrons:
     c_bands      :     36.49s CPU     37.10s WALL (      11 calls)
     sum_band     :      6.49s CPU      6.61s WALL (      11 calls)
     v_of_rho     :      0.29s CPU      0.30s WALL (      11 calls)
     mix_rho      :      0.28s CPU      0.29s WALL (      11 calls)

     Called by c_bands:
     init_us_2    :      0.28s CPU      0.29s WALL (      75 calls)
     cegterg      :     34.27s CPU     34.85s WALL (      33 calls)

     Called by sum_band:

     Called by *egterg:
     h_psi        :     33.33s CPU     33.90s WALL (     121 calls)
     g_psi        :      0.09s CPU      0.10s WALL (      85 calls)
     cdiaghg      :      0.39s CPU      0.40s WALL (     115 calls)

     Called by h_psi:
     h_psi:calbec :      0.73s CPU      0.74s WALL (     121 calls)
     vloc_psi     :     31.79s CPU     32.30s WALL (     121 calls)
     add_vuspsi   :      0.70s CPU      0.70s WALL (     121 calls)

     General routines
     calbec       :      0.85s CPU      0.86s WALL (     136 calls)
     fft          :      0.31s CPU      0.32s WALL (      38 calls)
     ffts         :      0.08s CPU      0.08s WALL (      11 calls)
     fftw         :     33.10s CPU     33.64s WALL (    7200 calls)

     Parallel routines

     PWSCF        :     47.69s CPU     48.56s WALL


   This run was terminated on:  14:28:55   2Nov2020            

=------------------------------------------------------------------------------=
   JOB DONE.
=------------------------------------------------------------------------------=
