
     Program PWSCF v.6.5 starts on  2Nov2020 at 15: 0:46 

     This program is part of the open-source Quantum ESPRESSO suite
     for quantum simulation of materials; please cite
         "P. Giannozzi et al., J. Phys.:Condens. Matter 21 395502 (2009);
         "P. Giannozzi et al., J. Phys.:Condens. Matter 29 465901 (2017);
          URL http://www.quantum-espresso.org", 
     in publications or presentations arising from this work. More details at
     http://www.quantum-espresso.org/quote

     Parallel version (MPI), running on     4 processors

     MPI processes distributed on     1 nodes
     K-points division:     npool     =       4
     Reading input from DISP.supercell_template.in.58

     Current dimensions of program PWSCF are:
     Max number of different atomic species (ntypx) = 10
     Max number of k-points (npk) =  40000
     Max angular momentum in pseudopotentials (lmaxx) =  3

     Subspace diagonalization in iterative solution of the eigenvalue problem:
     a serial algorithm will be used

     Message from routine setup:
     using ibrav=0 with symmetry is DISCOURAGED, use correct ibrav instead

     G-vector sticks info
     --------------------
     sticks:   dense  smooth     PW     G-vecs:    dense   smooth      PW
     Sum        1723    1723    475                47183    47183    6855



     bravais-lattice index     =            0
     lattice parameter (alat)  =      14.4250  a.u.
     unit-cell volume          =    2122.4160 (a.u.)^3
     number of atoms/cell      =           16
     number of atomic types    =            1
     number of electrons       =        64.00
     number of Kohn-Sham states=           32
     kinetic-energy cutoff     =      30.0000  Ry
     charge density cutoff     =     120.0000  Ry
     convergence threshold     =      1.0E-10
     mixing beta               =       0.7000
     number of iterations used =            8  plain     mixing
     Exchange-correlation= SLA PZ NOGX NOGC
                           (   1   1   0   0   0   0   0)

     celldm(1)=  14.424978  celldm(2)=   0.000000  celldm(3)=   0.000000
     celldm(4)=   0.000000  celldm(5)=   0.000000  celldm(6)=   0.000000

     crystal axes: (cart. coord. in units of alat)
               a(1) = (  -0.707107   0.000000   0.707107 )  
               a(2) = (   0.000000   0.707107   0.707107 )  
               a(3) = (  -0.707107   0.707107   0.000000 )  

     reciprocal axes: (cart. coord. in units 2 pi/alat)
               b(1) = ( -0.707107 -0.707107  0.707107 )  
               b(2) = (  0.707107  0.707107  0.707107 )  
               b(3) = ( -0.707107  0.707107 -0.707107 )  


     PseudoPot. # 1 for Si read from file:
     ../../pseudoPotentials/Si.pz-vbc.UPF
     MD5 check sum: 9f25e6ff280f3123e9b3a84715b2e9c9
     Pseudo is Norm-conserving, Zval =  4.0
     Generated by new atomic code, or converted to UPF format
     Using radial grid of  431 points,  2 beta functions with: 
                l(1) =   0
                l(2) =   1

     atomic species   valence    mass     pseudopotential
        Si             4.00    28.08600     Si( 1.00)

      4 Sym. Ops., with inversion, found



   Cartesian axes

     site n.     atom                  positions (alat units)
         1           Si  tau(   1) = (  -0.0870783  -0.0883883  -0.0883883  )
         2           Si  tau(   2) = (   0.0870783   0.0883883   0.0883883  )
         3           Si  tau(   3) = (  -0.4419417  -0.0883883   0.2651650  )
         4           Si  tau(   4) = (  -0.2651650   0.0883883   0.4419417  )
         5           Si  tau(   5) = (  -0.0883883   0.2651650   0.2651650  )
         6           Si  tau(   6) = (   0.0883883   0.4419417   0.4419417  )
         7           Si  tau(   7) = (  -0.4419417   0.2651650   0.6187184  )
         8           Si  tau(   8) = (  -0.2651650   0.4419417   0.7954951  )
         9           Si  tau(   9) = (  -0.4419417   0.2651650  -0.0883883  )
        10           Si  tau(  10) = (  -0.2651650   0.4419417   0.0883883  )
        11           Si  tau(  11) = (  -0.7954951   0.2651650   0.2651650  )
        12           Si  tau(  12) = (  -0.6187184   0.4419417   0.4419417  )
        13           Si  tau(  13) = (  -0.4419417   0.6187184   0.2651650  )
        14           Si  tau(  14) = (  -0.2651650   0.7954951   0.4419417  )
        15           Si  tau(  15) = (  -0.7954951   0.6187184   0.6187184  )
        16           Si  tau(  16) = (  -0.6187184   0.7954951   0.7954951  )

     number of k points=    10
                       cart. coord. in units 2pi/alat
        k(    1) = (   0.0000000   0.0000000   0.0000000), wk =   0.0740741
        k(    2) = (  -0.2357023   0.2357023  -0.2357023), wk =   0.2962963
        k(    3) = (   0.0000000   0.4714045   0.0000000), wk =   0.2962963
        k(    4) = (   0.4714045  -0.0000000   0.4714045), wk =   0.2962963
        k(    5) = (  -0.2357023   0.2357023   0.2357023), wk =   0.1481481
        k(    6) = (  -0.2357023  -0.2357023  -0.2357023), wk =   0.1481481
        k(    7) = (   0.4714045   0.0000000   0.0000000), wk =   0.1481481
        k(    8) = (  -0.0000000   0.4714045  -0.4714045), wk =   0.1481481
        k(    9) = (   0.0000000  -0.4714045  -0.4714045), wk =   0.1481481
        k(   10) = (   0.4714045  -0.0000000  -0.4714045), wk =   0.2962963

     Dense  grid:    47183 G-vectors     FFT dimensions: (  54,  54,  54)

     Estimated max dynamical RAM per process >      71.64 MB

     Estimated total dynamical RAM >     286.57 MB

     Initial potential from superposition of free atoms

     starting charge   63.99206, renormalised to   64.00000
     Starting wfcs are   64 randomized atomic wfcs

     total cpu time spent up to now is        2.8 secs

     Self-consistent Calculation

     iteration #  1     ecut=    30.00 Ry     beta= 0.70
     Davidson diagonalization with overlap
     ethr =  1.00E-02,  avg # of iterations =  2.0

     Threshold (ethr) on eigenvalues was too large:
     Diagonalizing with lowered threshold

     Davidson diagonalization with overlap
     ethr =  8.05E-04,  avg # of iterations =  1.0

     total cpu time spent up to now is       10.4 secs

     total energy              =    -126.77597151 Ry
     Harris-Foulkes estimate   =    -126.94712911 Ry
     estimated scf accuracy    <       0.50309136 Ry

     iteration #  2     ecut=    30.00 Ry     beta= 0.70
     Davidson diagonalization with overlap
     ethr =  7.86E-04,  avg # of iterations =  1.0

     total cpu time spent up to now is       13.7 secs

     total energy              =    -126.80087311 Ry
     Harris-Foulkes estimate   =    -126.80331178 Ry
     estimated scf accuracy    <       0.01760345 Ry

     iteration #  3     ecut=    30.00 Ry     beta= 0.70
     Davidson diagonalization with overlap
     ethr =  2.75E-05,  avg # of iterations =  2.9

     total cpu time spent up to now is       17.8 secs

     total energy              =    -126.80419503 Ry
     Harris-Foulkes estimate   =    -126.80444223 Ry
     estimated scf accuracy    <       0.00058188 Ry

     iteration #  4     ecut=    30.00 Ry     beta= 0.70
     Davidson diagonalization with overlap
     ethr =  9.09E-07,  avg # of iterations =  2.7

     total cpu time spent up to now is       22.2 secs

     total energy              =    -126.80434449 Ry
     Harris-Foulkes estimate   =    -126.80438144 Ry
     estimated scf accuracy    <       0.00008178 Ry

     iteration #  5     ecut=    30.00 Ry     beta= 0.70
     Davidson diagonalization with overlap
     ethr =  1.28E-07,  avg # of iterations =  2.6

     total cpu time spent up to now is       26.0 secs

     total energy              =    -126.80435487 Ry
     Harris-Foulkes estimate   =    -126.80436119 Ry
     estimated scf accuracy    <       0.00001467 Ry

     iteration #  6     ecut=    30.00 Ry     beta= 0.70
     Davidson diagonalization with overlap
     ethr =  2.29E-08,  avg # of iterations =  2.2

     total cpu time spent up to now is       29.7 secs

     total energy              =    -126.80435752 Ry
     Harris-Foulkes estimate   =    -126.80435763 Ry
     estimated scf accuracy    <       0.00000040 Ry

     iteration #  7     ecut=    30.00 Ry     beta= 0.70
     Davidson diagonalization with overlap
     ethr =  6.20E-10,  avg # of iterations =  3.0

     total cpu time spent up to now is       33.7 secs

     total energy              =    -126.80435759 Ry
     Harris-Foulkes estimate   =    -126.80435761 Ry
     estimated scf accuracy    <       0.00000007 Ry

     iteration #  8     ecut=    30.00 Ry     beta= 0.70
     Davidson diagonalization with overlap
     ethr =  1.10E-10,  avg # of iterations =  2.0

     total cpu time spent up to now is       36.9 secs

     total energy              =    -126.80435759 Ry
     Harris-Foulkes estimate   =    -126.80435759 Ry
     estimated scf accuracy    <          2.0E-09 Ry

     iteration #  9     ecut=    30.00 Ry     beta= 0.70
     Davidson diagonalization with overlap
     ethr =  3.13E-12,  avg # of iterations =  3.8

     total cpu time spent up to now is       41.8 secs

     End of self-consistent calculation

          k = 0.0000 0.0000 0.0000 (  5961 PWs)   bands (ev):

    -5.8156  -3.4333  -3.4208  -3.4207  -3.4196  -1.6155  -1.6098  -1.6010
    -1.5983  -1.5982  -1.5912  -0.8299  -0.8299  -0.8226  -0.8134   3.3259
     3.3299   3.3313   3.3323   3.3337   3.3375   5.0023   5.0176   5.0194
     5.0231   5.0250   5.0287   5.0306   5.0341   6.2256   6.2376   6.2501

          k =-0.2357 0.2357-0.2357 (  5888 PWs)   bands (ev):

    -5.4486  -4.4131  -3.2721  -3.2662  -3.2649  -2.6962  -2.6906  -2.6872
    -0.4386  -0.4377  -0.4256  -0.3379  -0.3344  -0.3262   0.8581   2.5176
     2.5197   2.5236   3.4194   3.4233   3.4264   3.6305   3.6360   3.6365
     3.8524   4.4233   4.4297   4.4306   5.2145   5.2277   5.7702   5.7840

          k = 0.0000 0.4714 0.0000 (  5866 PWs)   bands (ev):

    -5.3238  -3.8802  -3.6752  -3.6698  -3.6625  -3.6584  -1.4822  -1.4739
    -1.4700  -1.4615   0.1763   0.1831   0.1877   0.1951   1.2436   2.4955
     2.4992   2.5032   2.5066   3.1264   3.1363   3.1393   3.1431   3.7745
     3.7745   4.2295   4.9156   4.9189   4.9218   4.9256   5.0208   5.0212

          k = 0.4714-0.0000 0.4714 (  5902 PWs)   bands (ev):

    -4.8499  -4.4942  -4.4931  -3.4839  -3.4838  -2.4833  -2.4715  -2.4651
    -0.6398  -0.6276  -0.5490   0.5955   0.5956   1.7099   1.7849   1.7951
     2.1376   2.1389   2.5209   2.5837   2.5841   3.4054   3.4133   3.7681
     3.8920   3.8923   4.0881   4.2101   4.2222   4.4585   4.4597   5.6671

          k =-0.2357 0.2357 0.2357 (  5888 PWs)   bands (ev):

    -5.4483  -4.4114  -3.2784  -3.2650  -3.2647  -2.7015  -2.6883  -2.6874
    -0.4382  -0.4284  -0.4210  -0.3386  -0.3264  -0.3231   0.8496   2.5091
     2.5161   2.5163   3.4071   3.4177   3.4196   3.6345   3.6382   3.6407
     3.8433   4.4296   4.4333   4.4367   5.2182   5.2308   5.7754   5.7895

          k =-0.2357-0.2357-0.2357 (  5888 PWs)   bands (ev):

    -5.4483  -4.4114  -3.2770  -3.2663  -3.2647  -2.6983  -2.6908  -2.6882
    -0.4362  -0.4285  -0.4223  -0.3333  -0.3291  -0.3263   0.8496   2.5106
     2.5148   2.5161   3.4084   3.4166   3.4196   3.6344   3.6366   3.6423
     3.8433   4.4296   4.4311   4.4387   5.2181   5.2311   5.7753   5.7893

          k = 0.4714 0.0000 0.0000 (  5866 PWs)   bands (ev):

    -5.3238  -3.8804  -3.6736  -3.6646  -3.6644  -3.6632  -1.4765  -1.4765
    -1.4674  -1.4674   0.1793   0.1793   0.1896   0.1942   1.2437   2.5010
     2.5010   2.5015   2.5015   3.1347   3.1347   3.1351   3.1407   3.7694
     3.7791   4.2297   4.9017   4.9226   4.9268   4.9279   5.0157   5.0285

          k =-0.0000 0.4714-0.4714 (  5902 PWs)   bands (ev):

    -4.8505  -4.5000  -4.4878  -3.4822  -3.4822  -2.4859  -2.4675  -2.4670
    -0.6385  -0.6385  -0.5412   0.5884   0.5884   1.7118   1.7878   1.7962
     2.1432   2.1435   2.5299   2.5843   2.5843   3.4069   3.4069   3.7667
     3.8983   3.8984   4.0820   4.2193   4.2218   4.4437   4.4627   5.6575

          k = 0.0000-0.4714-0.4714 (  5902 PWs)   bands (ev):

    -4.8492  -4.4994  -4.4874  -3.4905  -3.4806  -2.4779  -2.4765  -2.4653
    -0.6296  -0.6282  -0.5570   0.6026   0.6032   1.7081   1.7852   1.7908
     2.1282   2.1376   2.5133   2.5795   2.5867   3.4105   3.4141   3.7698
     3.8768   3.8940   4.0933   4.2083   4.2155   4.4603   4.4695   5.6769

          k = 0.4714-0.0000-0.4714 (  5902 PWs)   bands (ev):

    -4.8499  -4.4942  -4.4931  -3.4884  -3.4794  -2.4829  -2.4719  -2.4651
    -0.6398  -0.6275  -0.5491   0.5887   0.6025   1.7096   1.7849   1.7954
     2.1376   2.1388   2.5208   2.5819   2.5860   3.4055   3.4133   3.7678
     3.8892   3.8953   4.0881   4.2101   4.2221   4.4586   4.4598   5.6672

     highest occupied level (ev):     6.2501

!    total energy              =    -126.80435759 Ry
     Harris-Foulkes estimate   =    -126.80435759 Ry
     estimated scf accuracy    <          5.0E-11 Ry

     The total energy is the sum of the following terms:

     one-electron contribution =      38.28211198 Ry
     hartree contribution      =       8.66146128 Ry
     xc contribution           =     -38.55022242 Ry
     ewald contribution        =    -135.19770843 Ry

     convergence has been achieved in   9 iterations

     Forces acting on atoms (cartesian axes, Ry/au):

     atom    1 type  1   force =    -0.00671211   -0.00093610   -0.00093610
     atom    2 type  1   force =     0.00671211    0.00093610    0.00093610
     atom    3 type  1   force =     0.00022671    0.00005313   -0.00025349
     atom    4 type  1   force =    -0.00022671   -0.00005313    0.00025349
     atom    5 type  1   force =    -0.00171832    0.00091261    0.00091261
     atom    6 type  1   force =     0.00171832   -0.00091261   -0.00091261
     atom    7 type  1   force =    -0.00118740   -0.00069009    0.00089083
     atom    8 type  1   force =     0.00118740    0.00069009   -0.00089083
     atom    9 type  1   force =     0.00022671   -0.00025349    0.00005313
     atom   10 type  1   force =    -0.00022671    0.00025349   -0.00005313
     atom   11 type  1   force =    -0.00029111    0.00005415    0.00005415
     atom   12 type  1   force =     0.00029111   -0.00005415   -0.00005415
     atom   13 type  1   force =    -0.00118740    0.00089083   -0.00069009
     atom   14 type  1   force =     0.00118740   -0.00089083    0.00069009
     atom   15 type  1   force =     0.00010668   -0.00005432   -0.00005432
     atom   16 type  1   force =    -0.00010668    0.00005432    0.00005432

     Total force =     0.010689     Total SCF correction =     0.000004


     Computing stress (Cartesian axis) and pressure

          total   stress  (Ry/bohr**3)                   (kbar)     P=        1.58
   0.00001066   0.00000001   0.00000001            1.57        0.00        0.00
   0.00000001   0.00001082   0.00000662            0.00        1.59        0.97
   0.00000001   0.00000662   0.00001082            0.00        0.97        1.59


     Writing output data file ./out/silicon.save/

     init_run     :      2.43s CPU      2.49s WALL (       1 calls)
     electrons    :     38.22s CPU     39.01s WALL (       1 calls)
     forces       :      0.31s CPU      0.32s WALL (       1 calls)
     stress       :      0.93s CPU      0.93s WALL (       1 calls)

     Called by init_run:
     wfcinit      :      2.22s CPU      2.26s WALL (       1 calls)
     potinit      :      0.05s CPU      0.06s WALL (       1 calls)
     hinit0       :      0.09s CPU      0.10s WALL (       1 calls)

     Called by electrons:
     c_bands      :     31.87s CPU     32.51s WALL (      10 calls)
     sum_band     :      5.81s CPU      5.92s WALL (      10 calls)
     v_of_rho     :      0.25s CPU      0.26s WALL (      10 calls)
     mix_rho      :      0.22s CPU      0.24s WALL (      10 calls)

     Called by c_bands:
     init_us_2    :      0.26s CPU      0.28s WALL (      69 calls)
     cegterg      :     30.59s CPU     31.17s WALL (      30 calls)

     Called by sum_band:

     Called by *egterg:
     h_psi        :     29.88s CPU     30.37s WALL (     110 calls)
     g_psi        :      0.09s CPU      0.09s WALL (      77 calls)
     cdiaghg      :      0.36s CPU      0.36s WALL (     104 calls)

     Called by h_psi:
     h_psi:calbec :      0.67s CPU      0.68s WALL (     110 calls)
     vloc_psi     :     28.45s CPU     28.86s WALL (     110 calls)
     add_vuspsi   :      0.64s CPU      0.65s WALL (     110 calls)

     General routines
     calbec       :      0.77s CPU      0.77s WALL (     125 calls)
     fft          :      0.26s CPU      0.26s WALL (      35 calls)
     ffts         :      0.08s CPU      0.09s WALL (      10 calls)
     fftw         :     29.84s CPU     30.29s WALL (    6562 calls)

     Parallel routines

     PWSCF        :     42.26s CPU     43.13s WALL


   This run was terminated on:  15: 1:29   2Nov2020            

=------------------------------------------------------------------------------=
   JOB DONE.
=------------------------------------------------------------------------------=
