
     Program PWSCF v.6.5 starts on  2Nov2020 at 14:39:35 

     This program is part of the open-source Quantum ESPRESSO suite
     for quantum simulation of materials; please cite
         "P. Giannozzi et al., J. Phys.:Condens. Matter 21 395502 (2009);
         "P. Giannozzi et al., J. Phys.:Condens. Matter 29 465901 (2017);
          URL http://www.quantum-espresso.org", 
     in publications or presentations arising from this work. More details at
     http://www.quantum-espresso.org/quote

     Parallel version (MPI), running on     4 processors

     MPI processes distributed on     1 nodes
     K-points division:     npool     =       4
     Reading input from DISP.supercell_template.in.32

     Current dimensions of program PWSCF are:
     Max number of different atomic species (ntypx) = 10
     Max number of k-points (npk) =  40000
     Max angular momentum in pseudopotentials (lmaxx) =  3

     Subspace diagonalization in iterative solution of the eigenvalue problem:
     a serial algorithm will be used

     Found symmetry operation: I + ( -0.5000  0.0000  0.0000)
     This is a supercell, fractional translations are disabled
     Message from routine setup:
     using ibrav=0 with symmetry is DISCOURAGED, use correct ibrav instead

     G-vector sticks info
     --------------------
     sticks:   dense  smooth     PW     G-vecs:    dense   smooth      PW
     Sum        1723    1723    475                47183    47183    6855



     bravais-lattice index     =            0
     lattice parameter (alat)  =      14.4250  a.u.
     unit-cell volume          =    2122.4160 (a.u.)^3
     number of atoms/cell      =           16
     number of atomic types    =            1
     number of electrons       =        64.00
     number of Kohn-Sham states=           32
     kinetic-energy cutoff     =      30.0000  Ry
     charge density cutoff     =     120.0000  Ry
     convergence threshold     =      1.0E-10
     mixing beta               =       0.7000
     number of iterations used =            8  plain     mixing
     Exchange-correlation= SLA PZ NOGX NOGC
                           (   1   1   0   0   0   0   0)

     celldm(1)=  14.424978  celldm(2)=   0.000000  celldm(3)=   0.000000
     celldm(4)=   0.000000  celldm(5)=   0.000000  celldm(6)=   0.000000

     crystal axes: (cart. coord. in units of alat)
               a(1) = (  -0.707107   0.000000   0.707107 )  
               a(2) = (   0.000000   0.707107   0.707107 )  
               a(3) = (  -0.707107   0.707107   0.000000 )  

     reciprocal axes: (cart. coord. in units 2 pi/alat)
               b(1) = ( -0.707107 -0.707107  0.707107 )  
               b(2) = (  0.707107  0.707107  0.707107 )  
               b(3) = ( -0.707107  0.707107 -0.707107 )  


     PseudoPot. # 1 for Si read from file:
     ../../pseudoPotentials/Si.pz-vbc.UPF
     MD5 check sum: 9f25e6ff280f3123e9b3a84715b2e9c9
     Pseudo is Norm-conserving, Zval =  4.0
     Generated by new atomic code, or converted to UPF format
     Using radial grid of  431 points,  2 beta functions with: 
                l(1) =   0
                l(2) =   1

     atomic species   valence    mass     pseudopotential
        Si             4.00    28.08600     Si( 1.00)

      2 Sym. Ops. (no inversion) found



   Cartesian axes

     site n.     atom                  positions (alat units)
         1           Si  tau(   1) = (  -0.0883883  -0.0870783  -0.0883883  )
         2           Si  tau(   2) = (   0.0883883   0.0883883   0.0883883  )
         3           Si  tau(   3) = (  -0.4419417  -0.0870783   0.2651650  )
         4           Si  tau(   4) = (  -0.2651650   0.0883883   0.4419417  )
         5           Si  tau(   5) = (  -0.0883883   0.2651650   0.2651650  )
         6           Si  tau(   6) = (   0.0883883   0.4419417   0.4419417  )
         7           Si  tau(   7) = (  -0.4419417   0.2651650   0.6187184  )
         8           Si  tau(   8) = (  -0.2651650   0.4419417   0.7954951  )
         9           Si  tau(   9) = (  -0.4419417   0.2651650  -0.0883883  )
        10           Si  tau(  10) = (  -0.2651650   0.4419417   0.0883883  )
        11           Si  tau(  11) = (  -0.7954951   0.2651650   0.2651650  )
        12           Si  tau(  12) = (  -0.6187184   0.4419417   0.4419417  )
        13           Si  tau(  13) = (  -0.4419417   0.6187184   0.2651650  )
        14           Si  tau(  14) = (  -0.2651650   0.7954951   0.4419417  )
        15           Si  tau(  15) = (  -0.7954951   0.6187184   0.6187184  )
        16           Si  tau(  16) = (  -0.6187184   0.7954951   0.7954951  )

     number of k points=    10
                       cart. coord. in units 2pi/alat
        k(    1) = (   0.0000000   0.0000000   0.0000000), wk =   0.0740741
        k(    2) = (  -0.2357023   0.2357023  -0.2357023), wk =   0.1481481
        k(    3) = (   0.0000000   0.4714045   0.0000000), wk =   0.1481481
        k(    4) = (   0.4714045  -0.0000000   0.4714045), wk =   0.1481481
        k(    5) = (   0.2357023   0.2357023   0.2357023), wk =   0.1481481
        k(    6) = (  -0.2357023  -0.2357023   0.2357023), wk =   0.2962963
        k(    7) = (   0.4714045   0.0000000   0.0000000), wk =   0.2962963
        k(    8) = (   0.4714045   0.0000000  -0.4714045), wk =   0.1481481
        k(    9) = (  -0.0000000   0.4714045  -0.4714045), wk =   0.2962963
        k(   10) = (   0.0000000  -0.4714045  -0.4714045), wk =   0.2962963

     Dense  grid:    47183 G-vectors     FFT dimensions: (  54,  54,  54)

     Estimated max dynamical RAM per process >      71.64 MB

     Estimated total dynamical RAM >     286.57 MB

     Initial potential from superposition of free atoms

     starting charge   63.99206, renormalised to   64.00000
     Starting wfcs are   64 randomized atomic wfcs

     total cpu time spent up to now is        2.9 secs

     Self-consistent Calculation

     iteration #  1     ecut=    30.00 Ry     beta= 0.70
     Davidson diagonalization with overlap
     ethr =  1.00E-02,  avg # of iterations =  2.0

     Threshold (ethr) on eigenvalues was too large:
     Diagonalizing with lowered threshold

     Davidson diagonalization with overlap
     ethr =  8.05E-04,  avg # of iterations =  1.0

     total cpu time spent up to now is       10.8 secs

     total energy              =    -126.77599282 Ry
     Harris-Foulkes estimate   =    -126.94714630 Ry
     estimated scf accuracy    <       0.50308037 Ry

     iteration #  2     ecut=    30.00 Ry     beta= 0.70
     Davidson diagonalization with overlap
     ethr =  7.86E-04,  avg # of iterations =  1.0

     total cpu time spent up to now is       14.1 secs

     total energy              =    -126.80089462 Ry
     Harris-Foulkes estimate   =    -126.80333476 Ry
     estimated scf accuracy    <       0.01760504 Ry

     iteration #  3     ecut=    30.00 Ry     beta= 0.70
     Davidson diagonalization with overlap
     ethr =  2.75E-05,  avg # of iterations =  2.9

     total cpu time spent up to now is       18.4 secs

     total energy              =    -126.80421370 Ry
     Harris-Foulkes estimate   =    -126.80446437 Ry
     estimated scf accuracy    <       0.00058598 Ry

     iteration #  4     ecut=    30.00 Ry     beta= 0.70
     Davidson diagonalization with overlap
     ethr =  9.16E-07,  avg # of iterations =  2.7

     total cpu time spent up to now is       23.1 secs

     total energy              =    -126.80436091 Ry
     Harris-Foulkes estimate   =    -126.80440666 Ry
     estimated scf accuracy    <       0.00010368 Ry

     iteration #  5     ecut=    30.00 Ry     beta= 0.70
     Davidson diagonalization with overlap
     ethr =  1.62E-07,  avg # of iterations =  2.4

     total cpu time spent up to now is       27.4 secs

     total energy              =    -126.80437432 Ry
     Harris-Foulkes estimate   =    -126.80438156 Ry
     estimated scf accuracy    <       0.00001651 Ry

     iteration #  6     ecut=    30.00 Ry     beta= 0.70
     Davidson diagonalization with overlap
     ethr =  2.58E-08,  avg # of iterations =  2.2

     total cpu time spent up to now is       31.6 secs

     total energy              =    -126.80437710 Ry
     Harris-Foulkes estimate   =    -126.80437719 Ry
     estimated scf accuracy    <       0.00000037 Ry

     iteration #  7     ecut=    30.00 Ry     beta= 0.70
     Davidson diagonalization with overlap
     ethr =  5.74E-10,  avg # of iterations =  3.3

     total cpu time spent up to now is       36.0 secs

     total energy              =    -126.80437717 Ry
     Harris-Foulkes estimate   =    -126.80437721 Ry
     estimated scf accuracy    <       0.00000010 Ry

     iteration #  8     ecut=    30.00 Ry     beta= 0.70
     Davidson diagonalization with overlap
     ethr =  1.59E-10,  avg # of iterations =  2.0

     total cpu time spent up to now is       39.2 secs

     total energy              =    -126.80437718 Ry
     Harris-Foulkes estimate   =    -126.80437718 Ry
     estimated scf accuracy    <          4.5E-09 Ry

     iteration #  9     ecut=    30.00 Ry     beta= 0.70
     Davidson diagonalization with overlap
     ethr =  6.99E-12,  avg # of iterations =  3.1

     total cpu time spent up to now is       43.5 secs

     total energy              =    -126.80437718 Ry
     Harris-Foulkes estimate   =    -126.80437718 Ry
     estimated scf accuracy    <          1.2E-10 Ry

     iteration # 10     ecut=    30.00 Ry     beta= 0.70
     Davidson diagonalization with overlap
     ethr =  1.86E-13,  avg # of iterations =  3.3

     total cpu time spent up to now is       48.1 secs

     End of self-consistent calculation

          k = 0.0000 0.0000 0.0000 (  5961 PWs)   bands (ev):

    -5.8156  -3.4332  -3.4275  -3.4196  -3.4140  -1.6104  -1.6101  -1.6026
    -1.6023  -1.5943  -1.5942  -0.8345  -0.8255  -0.8225  -0.8134   3.3274
     3.3280   3.3318   3.3319   3.3357   3.3360   5.0042   5.0166   5.0186
     5.0202   5.0250   5.0268   5.0288   5.0407   6.2254   6.2376   6.2502

          k =-0.2357 0.2357-0.2357 (  5888 PWs)   bands (ev):

    -5.4483  -4.4114  -3.2769  -3.2663  -3.2647  -2.6983  -2.6907  -2.6882
    -0.4362  -0.4286  -0.4233  -0.3330  -0.3284  -0.3262   0.8496   2.5126
     2.5129   2.5161   3.4092   3.4158   3.4197   3.6345   3.6382   3.6406
     3.8432   4.4296   4.4333   4.4365   5.2181   5.2310   5.7753   5.7896

          k = 0.0000 0.4714 0.0000 (  5866 PWs)   bands (ev):

    -5.3238  -3.8802  -3.6738  -3.6699  -3.6632  -3.6589  -1.4808  -1.4720
    -1.4719  -1.4630   0.1771   0.1815   0.1896   0.1942   1.2437   2.5008
     2.5012   2.5013   2.5017   3.1320   3.1352   3.1374   3.1408   3.7696
     3.7790   4.2296   4.9034   4.9183   4.9226   4.9351   5.0140   5.0299

          k = 0.4714-0.0000 0.4714 (  5902 PWs)   bands (ev):

    -4.8493  -4.5020  -4.4847  -3.4905  -3.4806  -2.4778  -2.4765  -2.4653
    -0.6296  -0.6282  -0.5571   0.6026   0.6033   1.7082   1.7829   1.7931
     2.1284   2.1376   2.5130   2.5795   2.5867   3.4105   3.4142   3.7698
     3.8773   3.8941   4.0931   4.2076   4.2157   4.4542   4.4756   5.6771

          k = 0.2357 0.2357 0.2357 (  5888 PWs)   bands (ev):

    -5.4483  -4.4114  -3.2769  -3.2663  -3.2647  -2.6983  -2.6907  -2.6882
    -0.4362  -0.4286  -0.4233  -0.3330  -0.3284  -0.3262   0.8496   2.5126
     2.5129   2.5161   3.4092   3.4158   3.4197   3.6345   3.6382   3.6406
     3.8432   4.4296   4.4333   4.4365   5.2181   5.2310   5.7753   5.7896

          k =-0.2357-0.2357 0.2357 (  5888 PWs)   bands (ev):

    -5.4486  -4.4132  -3.2722  -3.2706  -3.2602  -2.6956  -2.6928  -2.6856
    -0.4402  -0.4337  -0.4264  -0.3369  -0.3333  -0.3299   0.8581   2.5181
     2.5213   2.5214   3.4183   3.4224   3.4284   3.6313   3.6340   3.6379
     3.8525   4.4242   4.4277   4.4317   5.2147   5.2277   5.7699   5.7840

          k = 0.4714 0.0000 0.0000 (  5866 PWs)   bands (ev):

    -5.3238  -3.8802  -3.6756  -3.6735  -3.6594  -3.6574  -1.4792  -1.4759
    -1.4679  -1.4645   0.1759   0.1840   0.1872   0.1951   1.2436   2.4966
     2.4991   2.5034   2.5056   3.1263   3.1332   3.1394   3.1461   3.7745
     3.7745   4.2295   4.9155   4.9172   4.9236   4.9255   5.0208   5.0212

          k = 0.4714 0.0000-0.4714 (  5902 PWs)   bands (ev):

    -4.8504  -4.5025  -4.4854  -3.4871  -3.4771  -2.4862  -2.4737  -2.4606
    -0.6392  -0.6376  -0.5411   0.5880   0.5886   1.7118   1.7869   1.7970
     2.1388   2.1478   2.5303   2.5807   2.5878   3.4051   3.4086   3.7668
     3.8901   3.9063   4.0825   4.2164   4.2250   4.4425   4.4637   5.6573

          k =-0.0000 0.4714-0.4714 (  5902 PWs)   bands (ev):

    -4.8499  -4.4942  -4.4931  -3.4839  -3.4838  -2.4833  -2.4704  -2.4661
    -0.6397  -0.6276  -0.5490   0.5955   0.5956   1.7099   1.7846   1.7952
     2.1375   2.1390   2.5204   2.5837   2.5845   3.4056   3.4132   3.7678
     3.8921   3.8925   4.0881   4.2099   4.2223   4.4586   4.4597   5.6671

          k = 0.0000-0.4714-0.4714 (  5902 PWs)   bands (ev):

    -4.8499  -4.4942  -4.4931  -3.4839  -3.4838  -2.4833  -2.4704  -2.4661
    -0.6397  -0.6276  -0.5490   0.5955   0.5956   1.7099   1.7846   1.7952
     2.1375   2.1390   2.5204   2.5837   2.5845   3.4056   3.4132   3.7678
     3.8921   3.8925   4.0881   4.2099   4.2223   4.4586   4.4597   5.6671

     highest occupied level (ev):     6.2502

!    total energy              =    -126.80437718 Ry
     Harris-Foulkes estimate   =    -126.80437718 Ry
     estimated scf accuracy    <          1.6E-11 Ry

     The total energy is the sum of the following terms:

     one-electron contribution =      38.28205763 Ry
     hartree contribution      =       8.66148919 Ry
     xc contribution           =     -38.55021843 Ry
     ewald contribution        =    -135.19770556 Ry

     convergence has been achieved in  10 iterations

     Forces acting on atoms (cartesian axes, Ry/au):

     atom    1 type  1   force =    -0.00000018   -0.00566985   -0.00000018
     atom    2 type  1   force =     0.00085884    0.00132164    0.00085884
     atom    3 type  1   force =    -0.00000018   -0.00566984   -0.00000018
     atom    4 type  1   force =     0.00085884    0.00132162    0.00085884
     atom    5 type  1   force =     0.00020025    0.00034885    0.00020025
     atom    6 type  1   force =     0.00000002    0.00272309    0.00000002
     atom    7 type  1   force =     0.00020025    0.00034885    0.00020025
     atom    8 type  1   force =     0.00000002    0.00272309    0.00000002
     atom    9 type  1   force =    -0.00020037    0.00034872   -0.00020034
     atom   10 type  1   force =     0.00000011   -0.00010452    0.00000013
     atom   11 type  1   force =    -0.00020034    0.00034872   -0.00020037
     atom   12 type  1   force =     0.00000013   -0.00010452    0.00000011
     atom   13 type  1   force =    -0.00000001   -0.00028948   -0.00000001
     atom   14 type  1   force =    -0.00085869    0.00132153   -0.00085869
     atom   15 type  1   force =    -0.00000002   -0.00028946   -0.00000002
     atom   16 type  1   force =    -0.00085868    0.00132156   -0.00085868

     Total force =     0.009644     Total SCF correction =     0.000006


     Computing stress (Cartesian axis) and pressure

          total   stress  (Ry/bohr**3)                   (kbar)     P=        1.58
   0.00001079   0.00000000   0.00000659            1.59        0.00        0.97
   0.00000000   0.00001065   0.00000000            0.00        1.57        0.00
   0.00000659   0.00000000   0.00001079            0.97        0.00        1.59


     Writing output data file ./out/silicon.save/

     init_run     :      2.80s CPU      2.86s WALL (       1 calls)
     electrons    :     44.81s CPU     45.16s WALL (       1 calls)
     forces       :      0.32s CPU      0.32s WALL (       1 calls)
     stress       :      0.92s CPU      0.92s WALL (       1 calls)

     Called by init_run:
     wfcinit      :      2.60s CPU      2.63s WALL (       1 calls)
     potinit      :      0.05s CPU      0.06s WALL (       1 calls)
     hinit0       :      0.10s CPU      0.11s WALL (       1 calls)

     Called by electrons:
     c_bands      :     37.25s CPU     37.56s WALL (      11 calls)
     sum_band     :      6.92s CPU      6.94s WALL (      11 calls)
     v_of_rho     :      0.30s CPU      0.31s WALL (      11 calls)
     mix_rho      :      0.28s CPU      0.28s WALL (      11 calls)

     Called by c_bands:
     init_us_2    :      0.30s CPU      0.31s WALL (      75 calls)
     cegterg      :     35.86s CPU     36.16s WALL (      33 calls)

     Called by sum_band:

     Called by *egterg:
     h_psi        :     35.00s CPU     35.24s WALL (     123 calls)
     g_psi        :      0.10s CPU      0.10s WALL (      87 calls)
     cdiaghg      :      0.41s CPU      0.41s WALL (     117 calls)

     Called by h_psi:
     h_psi:calbec :      0.76s CPU      0.76s WALL (     123 calls)
     vloc_psi     :     33.37s CPU     33.52s WALL (     123 calls)
     add_vuspsi   :      0.73s CPU      0.73s WALL (     123 calls)

     General routines
     calbec       :      0.87s CPU      0.87s WALL (     138 calls)
     fft          :      0.31s CPU      0.31s WALL (      38 calls)
     ffts         :      0.10s CPU      0.10s WALL (      11 calls)
     fftw         :     34.91s CPU     35.08s WALL (    7202 calls)

     Parallel routines

     PWSCF        :     48.96s CPU     49.38s WALL


   This run was terminated on:  14:40:25   2Nov2020            

=------------------------------------------------------------------------------=
   JOB DONE.
=------------------------------------------------------------------------------=
