
     Program PWSCF v.6.5 starts on  2Nov2020 at 14:38:29 

     This program is part of the open-source Quantum ESPRESSO suite
     for quantum simulation of materials; please cite
         "P. Giannozzi et al., J. Phys.:Condens. Matter 21 395502 (2009);
         "P. Giannozzi et al., J. Phys.:Condens. Matter 29 465901 (2017);
          URL http://www.quantum-espresso.org", 
     in publications or presentations arising from this work. More details at
     http://www.quantum-espresso.org/quote

     Parallel version (MPI), running on     4 processors

     MPI processes distributed on     1 nodes
     K-points division:     npool     =       4
     Reading input from DISP.supercell_template.in.31

     Current dimensions of program PWSCF are:
     Max number of different atomic species (ntypx) = 10
     Max number of k-points (npk) =  40000
     Max angular momentum in pseudopotentials (lmaxx) =  3

     Subspace diagonalization in iterative solution of the eigenvalue problem:
     a serial algorithm will be used

     Found symmetry operation: I + ( -0.5000  0.0000  0.0000)
     This is a supercell, fractional translations are disabled

     G-vector sticks info
     --------------------
     sticks:   dense  smooth     PW     G-vecs:    dense   smooth      PW
     Sum        1723    1723    475                47183    47183    6855



     bravais-lattice index     =            0
     lattice parameter (alat)  =      14.4250  a.u.
     unit-cell volume          =    2122.4160 (a.u.)^3
     number of atoms/cell      =           16
     number of atomic types    =            1
     number of electrons       =        64.00
     number of Kohn-Sham states=           32
     kinetic-energy cutoff     =      30.0000  Ry
     charge density cutoff     =     120.0000  Ry
     convergence threshold     =      1.0E-10
     mixing beta               =       0.7000
     number of iterations used =            8  plain     mixing
     Exchange-correlation= SLA PZ NOGX NOGC
                           (   1   1   0   0   0   0   0)

     celldm(1)=  14.424978  celldm(2)=   0.000000  celldm(3)=   0.000000
     celldm(4)=   0.000000  celldm(5)=   0.000000  celldm(6)=   0.000000

     crystal axes: (cart. coord. in units of alat)
               a(1) = (  -0.707107   0.000000   0.707107 )  
               a(2) = (   0.000000   0.707107   0.707107 )  
               a(3) = (  -0.707107   0.707107   0.000000 )  

     reciprocal axes: (cart. coord. in units 2 pi/alat)
               b(1) = ( -0.707107 -0.707107  0.707107 )  
               b(2) = (  0.707107  0.707107  0.707107 )  
               b(3) = ( -0.707107  0.707107 -0.707107 )  


     PseudoPot. # 1 for Si read from file:
     ../../pseudoPotentials/Si.pz-vbc.UPF
     MD5 check sum: 9f25e6ff280f3123e9b3a84715b2e9c9
     Pseudo is Norm-conserving, Zval =  4.0
     Generated by new atomic code, or converted to UPF format
     Using radial grid of  431 points,  2 beta functions with: 
                l(1) =   0
                l(2) =   1

     atomic species   valence    mass     pseudopotential
        Si             4.00    28.08600     Si( 1.00)

     No symmetry found



   Cartesian axes

     site n.     atom                  positions (alat units)
         1           Si  tau(   1) = (  -0.0883883  -0.0883883  -0.0870783  )
         2           Si  tau(   2) = (   0.0883883   0.0883883   0.0883883  )
         3           Si  tau(   3) = (  -0.4419417  -0.0883883   0.2664751  )
         4           Si  tau(   4) = (  -0.2651650   0.0883883   0.4419417  )
         5           Si  tau(   5) = (  -0.0883883   0.2651650   0.2651650  )
         6           Si  tau(   6) = (   0.0883883   0.4419417   0.4419417  )
         7           Si  tau(   7) = (  -0.4419417   0.2651650   0.6187184  )
         8           Si  tau(   8) = (  -0.2651650   0.4419417   0.7954951  )
         9           Si  tau(   9) = (  -0.4419417   0.2651650  -0.0883883  )
        10           Si  tau(  10) = (  -0.2651650   0.4419417   0.0883883  )
        11           Si  tau(  11) = (  -0.7954951   0.2651650   0.2651650  )
        12           Si  tau(  12) = (  -0.6187184   0.4419417   0.4419417  )
        13           Si  tau(  13) = (  -0.4419417   0.6187184   0.2651650  )
        14           Si  tau(  14) = (  -0.2651650   0.7954951   0.4419417  )
        15           Si  tau(  15) = (  -0.7954951   0.6187184   0.6187184  )
        16           Si  tau(  16) = (  -0.6187184   0.7954951   0.7954951  )

     number of k points=    14
                       cart. coord. in units 2pi/alat
        k(    1) = (   0.0000000   0.0000000   0.0000000), wk =   0.0740741
        k(    2) = (  -0.2357023   0.2357023  -0.2357023), wk =   0.1481481
        k(    3) = (   0.0000000   0.4714045   0.0000000), wk =   0.1481481
        k(    4) = (   0.4714045  -0.0000000   0.4714045), wk =   0.1481481
        k(    5) = (   0.2357023  -0.2357023  -0.2357023), wk =   0.1481481
        k(    6) = (   0.2357023   0.2357023   0.2357023), wk =   0.1481481
        k(    7) = (  -0.2357023  -0.2357023   0.2357023), wk =   0.1481481
        k(    8) = (   0.4714045   0.0000000   0.0000000), wk =   0.1481481
        k(    9) = (   0.0000000   0.0000000   0.4714045), wk =   0.1481481
        k(   10) = (  -0.4714045   0.0000000   0.4714045), wk =   0.1481481
        k(   11) = (  -0.0000000   0.4714045  -0.4714045), wk =   0.1481481
        k(   12) = (   0.0000000  -0.4714045  -0.4714045), wk =   0.1481481
        k(   13) = (  -0.4714045   0.4714045  -0.0000000), wk =   0.1481481
        k(   14) = (  -0.4714045  -0.4714045   0.0000000), wk =   0.1481481

     Dense  grid:    47183 G-vectors     FFT dimensions: (  54,  54,  54)

     Estimated max dynamical RAM per process >      74.52 MB

     Estimated total dynamical RAM >     298.07 MB

     Initial potential from superposition of free atoms

     starting charge   63.99206, renormalised to   64.00000
     Starting wfcs are   64 randomized atomic wfcs

     total cpu time spent up to now is        3.3 secs

     Self-consistent Calculation

     iteration #  1     ecut=    30.00 Ry     beta= 0.70
     Davidson diagonalization with overlap
     ethr =  1.00E-02,  avg # of iterations =  2.0

     Threshold (ethr) on eigenvalues was too large:
     Diagonalizing with lowered threshold

     Davidson diagonalization with overlap
     ethr =  8.05E-04,  avg # of iterations =  1.0

     total cpu time spent up to now is       13.4 secs

     total energy              =    -126.77600455 Ry
     Harris-Foulkes estimate   =    -126.94715995 Ry
     estimated scf accuracy    <       0.50308644 Ry

     iteration #  2     ecut=    30.00 Ry     beta= 0.70
     Davidson diagonalization with overlap
     ethr =  7.86E-04,  avg # of iterations =  1.0

     total cpu time spent up to now is       17.9 secs

     total energy              =    -126.80090434 Ry
     Harris-Foulkes estimate   =    -126.80334405 Ry
     estimated scf accuracy    <       0.01760486 Ry

     iteration #  3     ecut=    30.00 Ry     beta= 0.70
     Davidson diagonalization with overlap
     ethr =  2.75E-05,  avg # of iterations =  2.9

     total cpu time spent up to now is       23.7 secs

     total energy              =    -126.80422420 Ry
     Harris-Foulkes estimate   =    -126.80447410 Ry
     estimated scf accuracy    <       0.00058509 Ry

     iteration #  4     ecut=    30.00 Ry     beta= 0.70
     Davidson diagonalization with overlap
     ethr =  9.14E-07,  avg # of iterations =  2.6

     total cpu time spent up to now is       30.0 secs

     total energy              =    -126.80437161 Ry
     Harris-Foulkes estimate   =    -126.80441495 Ry
     estimated scf accuracy    <       0.00009779 Ry

     iteration #  5     ecut=    30.00 Ry     beta= 0.70
     Davidson diagonalization with overlap
     ethr =  1.53E-07,  avg # of iterations =  2.2

     total cpu time spent up to now is       35.4 secs

     total energy              =    -126.80438414 Ry
     Harris-Foulkes estimate   =    -126.80439118 Ry
     estimated scf accuracy    <       0.00001610 Ry

     iteration #  6     ecut=    30.00 Ry     beta= 0.70
     Davidson diagonalization with overlap
     ethr =  2.52E-08,  avg # of iterations =  2.1

     total cpu time spent up to now is       40.5 secs

     total energy              =    -126.80438687 Ry
     Harris-Foulkes estimate   =    -126.80438698 Ry
     estimated scf accuracy    <       0.00000036 Ry

     iteration #  7     ecut=    30.00 Ry     beta= 0.70
     Davidson diagonalization with overlap
     ethr =  5.68E-10,  avg # of iterations =  2.9

     total cpu time spent up to now is       46.8 secs

     total energy              =    -126.80438696 Ry
     Harris-Foulkes estimate   =    -126.80438698 Ry
     estimated scf accuracy    <       0.00000004 Ry

     iteration #  8     ecut=    30.00 Ry     beta= 0.70
     Davidson diagonalization with overlap
     ethr =  5.99E-11,  avg # of iterations =  2.4

     total cpu time spent up to now is       51.2 secs

     total energy              =    -126.80438697 Ry
     Harris-Foulkes estimate   =    -126.80438697 Ry
     estimated scf accuracy    <          3.3E-09 Ry

     iteration #  9     ecut=    30.00 Ry     beta= 0.70
     Davidson diagonalization with overlap
     ethr =  5.14E-12,  avg # of iterations =  3.0

     total cpu time spent up to now is       57.3 secs

     total energy              =    -126.80438697 Ry
     Harris-Foulkes estimate   =    -126.80438697 Ry
     estimated scf accuracy    <          1.3E-10 Ry

     iteration # 10     ecut=    30.00 Ry     beta= 0.70
     Davidson diagonalization with overlap
     ethr =  1.95E-13,  avg # of iterations =  3.4

     total cpu time spent up to now is       63.7 secs

     End of self-consistent calculation

          k = 0.0000 0.0000 0.0000 (  5961 PWs)   bands (ev):

    -5.8156  -3.4265  -3.4264  -3.4207  -3.4207  -1.6150  -1.6024  -1.6023
    -1.6023  -1.6023  -1.5896  -0.8300  -0.8300  -0.8180  -0.8180   3.3263
     3.3318   3.3318   3.3318   3.3318   3.3372   5.0121   5.0122   5.0200
     5.0200   5.0252   5.0252   5.0330   5.0331   6.2254   6.2377   6.2501

          k =-0.2357 0.2357-0.2357 (  5888 PWs)   bands (ev):

    -5.4486  -4.4131  -3.2721  -3.2661  -3.2649  -2.6961  -2.6906  -2.6872
    -0.4382  -0.4374  -0.4256  -0.3381  -0.3348  -0.3262   0.8581   2.5176
     2.5198   2.5236   3.4194   3.4233   3.4264   3.6306   3.6359   3.6365
     3.8524   4.4235   4.4297   4.4306   5.2143   5.2277   5.7701   5.7840

          k = 0.0000 0.4714 0.0000 (  5866 PWs)   bands (ev):

    -5.3237  -3.8801  -3.6708  -3.6706  -3.6623  -3.6622  -1.4842  -1.4720
    -1.4718  -1.4594   0.1788   0.1789   0.1922   0.1923   1.2436   2.4948
     2.4996   2.5029   2.5075   3.1314   3.1316   3.1409   3.1411   3.7744
     3.7744   4.2295   4.9174   4.9175   4.9234   4.9235   5.0208   5.0211

          k = 0.4714-0.0000 0.4714 (  5902 PWs)   bands (ev):

    -4.8499  -4.4941  -4.4930  -3.4884  -3.4794  -2.4810  -2.4728  -2.4662
    -0.6397  -0.6274  -0.5492   0.5887   0.6025   1.7096   1.7850   1.7953
     2.1374   2.1388   2.5213   2.5817   2.5856   3.4057   3.4134   3.7680
     3.8892   3.8952   4.0880   4.2099   4.2221   4.4586   4.4598   5.6672

          k = 0.2357-0.2357-0.2357 (  5888 PWs)   bands (ev):

    -5.4486  -4.4131  -3.2720  -3.2662  -3.2648  -2.6962  -2.6905  -2.6873
    -0.4383  -0.4374  -0.4253  -0.3381  -0.3346  -0.3266   0.8581   2.5176
     2.5197   2.5236   3.4194   3.4235   3.4263   3.6307   3.6359   3.6365
     3.8524   4.4233   4.4297   4.4306   5.2146   5.2277   5.7699   5.7840

          k = 0.2357 0.2357 0.2357 (  5888 PWs)   bands (ev):

    -5.4483  -4.4113  -3.2723  -3.2708  -3.2650  -2.6964  -2.6932  -2.6875
    -0.4374  -0.4255  -0.4244  -0.3362  -0.3278  -0.3244   0.8496   2.5105
     2.5145   2.5166   3.4118   3.4143   3.4185   3.6357   3.6363   3.6413
     3.8432   4.4305   4.4314   4.4377   5.2181   5.2308   5.7753   5.7895

          k =-0.2357-0.2357 0.2357 (  5888 PWs)   bands (ev):

    -5.4483  -4.4114  -3.2721  -3.2709  -3.2649  -2.6965  -2.6932  -2.6876
    -0.4371  -0.4255  -0.4245  -0.3366  -0.3276  -0.3244   0.8496   2.5105
     2.5145   2.5166   3.4116   3.4145   3.4185   3.6357   3.6363   3.6414
     3.8432   4.4305   4.4314   4.4375   5.2181   5.2311   5.7753   5.7893

          k = 0.4714 0.0000 0.0000 (  5866 PWs)   bands (ev):

    -5.3237  -3.8802  -3.6676  -3.6675  -3.6655  -3.6654  -1.4792  -1.4759
    -1.4679  -1.4645   0.1815   0.1816   0.1896   0.1896   1.2437   2.4966
     2.4991   2.5034   2.5057   3.1328   3.1329   3.1396   3.1397   3.7744
     3.7745   4.2295   4.9196   4.9197   4.9212   4.9213   5.0208   5.0211

          k = 0.0000 0.0000 0.4714 (  5866 PWs)   bands (ev):

    -5.3237  -3.8803  -3.6685  -3.6683  -3.6645  -3.6644  -1.4719  -1.4719
    -1.4719  -1.4719   0.1793   0.1793   0.1919   0.1919   1.2437   2.5012
     2.5012   2.5013   2.5013   3.1347   3.1347   3.1379   3.1379   3.7696
     3.7792   4.2297   4.9119   4.9131   4.9268   4.9279   5.0149   5.0285

          k =-0.4714 0.0000 0.4714 (  5902 PWs)   bands (ev):

    -4.8498  -4.4942  -4.4931  -3.4883  -3.4793  -2.4845  -2.4711  -2.4644
    -0.6399  -0.6276  -0.5489   0.5887   0.6024   1.7101   1.7848   1.7951
     2.1375   2.1389   2.5213   2.5817   2.5856   3.4056   3.4133   3.7684
     3.8890   3.8950   4.0882   4.2099   4.2222   4.4585   4.4597   5.6671

          k =-0.0000 0.4714-0.4714 (  5902 PWs)   bands (ev):

    -4.8498  -4.4941  -4.4931  -3.4839  -3.4839  -2.4834  -2.4704  -2.4662
    -0.6398  -0.6276  -0.5490   0.5955   0.5956   1.7099   1.7850   1.7951
     2.1375   2.1389   2.5213   2.5837   2.5837   3.4056   3.4133   3.7682
     3.8920   3.8922   4.0880   4.2099   4.2222   4.4585   4.4597   5.6671

          k = 0.0000-0.4714-0.4714 (  5902 PWs)   bands (ev):

    -4.8498  -4.4942  -4.4931  -3.4839  -3.4839  -2.4826  -2.4728  -2.4646
    -0.6399  -0.6275  -0.5491   0.5955   0.5956   1.7099   1.7847   1.7954
     2.1375   2.1389   2.5213   2.5837   2.5837   3.4056   3.4133   3.7682
     3.8920   3.8922   4.0880   4.2100   4.2221   4.4585   4.4597   5.6671

          k =-0.4714 0.4714-0.0000 (  5902 PWs)   bands (ev):

    -4.8505  -4.4939  -4.4939  -3.4822  -3.4822  -2.4859  -2.4675  -2.4670
    -0.6384  -0.6384  -0.5412   0.5883   0.5883   1.7118   1.7919   1.7920
     2.1432   2.1435   2.5299   2.5842   2.5843   3.4069   3.4069   3.7667
     3.8984   3.8984   4.0823   4.2206   4.2206   4.4530   4.4533   5.6573

          k =-0.4714-0.4714 0.0000 (  5902 PWs)   bands (ev):

    -4.8492  -4.4934  -4.4933  -3.4855  -3.4855  -2.4779  -2.4715  -2.4702
    -0.6289  -0.6289  -0.5571   0.6029   0.6029   1.7083   1.7879   1.7880
     2.1328   2.1331   2.5130   2.5831   2.5831   3.4123   3.4123   3.7698
     3.8856   3.8856   4.0933   4.2117   4.2117   4.4647   4.4650   5.6769

     highest occupied level (ev):     6.2501

!    total energy              =    -126.80438697 Ry
     Harris-Foulkes estimate   =    -126.80438697 Ry
     estimated scf accuracy    <          5.8E-11 Ry

     The total energy is the sum of the following terms:

     one-electron contribution =      38.28217217 Ry
     hartree contribution      =       8.66143599 Ry
     xc contribution           =     -38.55021956 Ry
     ewald contribution        =    -135.19777557 Ry

     convergence has been achieved in  10 iterations

     Forces acting on atoms (cartesian axes, Ry/au):

     atom    1 type  1   force =    -0.00019991   -0.00000135   -0.00515242
     atom    2 type  1   force =     0.00096677    0.00085927    0.00132185
     atom    3 type  1   force =    -0.00020011   -0.00000133   -0.00515216
     atom    4 type  1   force =     0.00096655    0.00085927    0.00132207
     atom    5 type  1   force =     0.00000076    0.00019997   -0.00016927
     atom    6 type  1   force =    -0.00180265   -0.00002305    0.00273559
     atom    7 type  1   force =     0.00000081    0.00019974   -0.00016930
     atom    8 type  1   force =    -0.00180258   -0.00002328    0.00273561
     atom    9 type  1   force =    -0.00000090   -0.00019978   -0.00016944
     atom   10 type  1   force =    -0.00010770    0.00000008   -0.00010459
     atom   11 type  1   force =    -0.00000090   -0.00019998   -0.00016946
     atom   12 type  1   force =    -0.00010769   -0.00000012   -0.00010462
     atom   13 type  1   force =     0.00019993    0.00000090    0.00022892
     atom   14 type  1   force =     0.00094408   -0.00083565    0.00130895
     atom   15 type  1   force =     0.00019968    0.00000092    0.00022909
     atom   16 type  1   force =     0.00094386   -0.00083561    0.00130918

     Total force =     0.009412     Total SCF correction =     0.000014


     Computing stress (Cartesian axis) and pressure

          total   stress  (Ry/bohr**3)                   (kbar)     P=        1.58
   0.00001078   0.00000659   0.00000000            1.59        0.97        0.00
   0.00000659   0.00001078   0.00000000            0.97        1.59        0.00
   0.00000000   0.00000000   0.00001066            0.00        0.00        1.57


     Writing output data file ./out/silicon.save/

     init_run     :      3.10s CPU      3.17s WALL (       1 calls)
     electrons    :     59.92s CPU     60.43s WALL (       1 calls)
     forces       :      0.37s CPU      0.38s WALL (       1 calls)
     stress       :      1.28s CPU      1.30s WALL (       1 calls)

     Called by init_run:
     wfcinit      :      2.95s CPU      3.01s WALL (       1 calls)
     potinit      :      0.04s CPU      0.05s WALL (       1 calls)
     hinit0       :      0.09s CPU      0.09s WALL (       1 calls)

     Called by electrons:
     c_bands      :     50.13s CPU     50.55s WALL (      11 calls)
     sum_band     :      9.13s CPU      9.20s WALL (      11 calls)
     v_of_rho     :      0.28s CPU      0.29s WALL (      11 calls)
     mix_rho      :      0.29s CPU      0.30s WALL (      11 calls)

     Called by c_bands:
     init_us_2    :      0.41s CPU      0.41s WALL (     100 calls)
     cegterg      :     48.29s CPU     48.70s WALL (      44 calls)

     Called by sum_band:

     Called by *egterg:
     h_psi        :     46.76s CPU     47.13s WALL (     160 calls)
     g_psi        :      0.14s CPU      0.14s WALL (     112 calls)
     cdiaghg      :      0.52s CPU      0.53s WALL (     152 calls)

     Called by h_psi:
     h_psi:calbec :      1.05s CPU      1.06s WALL (     160 calls)
     vloc_psi     :     44.52s CPU     44.83s WALL (     160 calls)
     add_vuspsi   :      1.01s CPU      1.02s WALL (     160 calls)

     General routines
     calbec       :      1.19s CPU      1.21s WALL (     180 calls)
     fft          :      0.29s CPU      0.29s WALL (      38 calls)
     ffts         :      0.10s CPU      0.10s WALL (      11 calls)
     fftw         :     46.51s CPU     46.84s WALL (    9548 calls)

     Parallel routines

     PWSCF        :   1m 4.79s CPU   1m 5.43s WALL


   This run was terminated on:  14:39:35   2Nov2020            

=------------------------------------------------------------------------------=
   JOB DONE.
=------------------------------------------------------------------------------=
