
     Program PWSCF v.6.5 starts on  2Nov2020 at 14:55:41 

     This program is part of the open-source Quantum ESPRESSO suite
     for quantum simulation of materials; please cite
         "P. Giannozzi et al., J. Phys.:Condens. Matter 21 395502 (2009);
         "P. Giannozzi et al., J. Phys.:Condens. Matter 29 465901 (2017);
          URL http://www.quantum-espresso.org", 
     in publications or presentations arising from this work. More details at
     http://www.quantum-espresso.org/quote

     Parallel version (MPI), running on     4 processors

     MPI processes distributed on     1 nodes
     K-points division:     npool     =       4
     Reading input from DISP.supercell_template.in.51

     Current dimensions of program PWSCF are:
     Max number of different atomic species (ntypx) = 10
     Max number of k-points (npk) =  40000
     Max angular momentum in pseudopotentials (lmaxx) =  3

     Subspace diagonalization in iterative solution of the eigenvalue problem:
     a serial algorithm will be used

     Found symmetry operation: I + ( -0.5000  0.0000  0.0000)
     This is a supercell, fractional translations are disabled
     Message from routine setup:
     using ibrav=0 with symmetry is DISCOURAGED, use correct ibrav instead

     G-vector sticks info
     --------------------
     sticks:   dense  smooth     PW     G-vecs:    dense   smooth      PW
     Sum        1723    1723    475                47183    47183    6855



     bravais-lattice index     =            0
     lattice parameter (alat)  =      14.4250  a.u.
     unit-cell volume          =    2122.4160 (a.u.)^3
     number of atoms/cell      =           16
     number of atomic types    =            1
     number of electrons       =        64.00
     number of Kohn-Sham states=           32
     kinetic-energy cutoff     =      30.0000  Ry
     charge density cutoff     =     120.0000  Ry
     convergence threshold     =      1.0E-10
     mixing beta               =       0.7000
     number of iterations used =            8  plain     mixing
     Exchange-correlation= SLA PZ NOGX NOGC
                           (   1   1   0   0   0   0   0)

     celldm(1)=  14.424978  celldm(2)=   0.000000  celldm(3)=   0.000000
     celldm(4)=   0.000000  celldm(5)=   0.000000  celldm(6)=   0.000000

     crystal axes: (cart. coord. in units of alat)
               a(1) = (  -0.707107   0.000000   0.707107 )  
               a(2) = (   0.000000   0.707107   0.707107 )  
               a(3) = (  -0.707107   0.707107   0.000000 )  

     reciprocal axes: (cart. coord. in units 2 pi/alat)
               b(1) = ( -0.707107 -0.707107  0.707107 )  
               b(2) = (  0.707107  0.707107  0.707107 )  
               b(3) = ( -0.707107  0.707107 -0.707107 )  


     PseudoPot. # 1 for Si read from file:
     ../../pseudoPotentials/Si.pz-vbc.UPF
     MD5 check sum: 9f25e6ff280f3123e9b3a84715b2e9c9
     Pseudo is Norm-conserving, Zval =  4.0
     Generated by new atomic code, or converted to UPF format
     Using radial grid of  431 points,  2 beta functions with: 
                l(1) =   0
                l(2) =   1

     atomic species   valence    mass     pseudopotential
        Si             4.00    28.08600     Si( 1.00)

     12 Sym. Ops., with inversion, found



   Cartesian axes

     site n.     atom                  positions (alat units)
         1           Si  tau(   1) = (  -0.0883883  -0.0883883  -0.0883883  )
         2           Si  tau(   2) = (   0.0883883   0.0883883   0.0883883  )
         3           Si  tau(   3) = (  -0.4419417  -0.0883883   0.2651650  )
         4           Si  tau(   4) = (  -0.2651650   0.0883883   0.4419417  )
         5           Si  tau(   5) = (  -0.0883883   0.2651650   0.2651650  )
         6           Si  tau(   6) = (   0.0883883   0.4419417   0.4419417  )
         7           Si  tau(   7) = (  -0.4419417   0.2651650   0.6187184  )
         8           Si  tau(   8) = (  -0.2651650   0.4419417   0.7954951  )
         9           Si  tau(   9) = (  -0.4419417   0.2651650  -0.0883883  )
        10           Si  tau(  10) = (  -0.2651650   0.4419417   0.0883883  )
        11           Si  tau(  11) = (  -0.7954951   0.2651650   0.2651650  )
        12           Si  tau(  12) = (  -0.6187184   0.4419417   0.4419417  )
        13           Si  tau(  13) = (  -0.4419417   0.6187184   0.2651650  )
        14           Si  tau(  14) = (  -0.2651650   0.7954951   0.4419417  )
        15           Si  tau(  15) = (  -0.7954951   0.6187184   0.6187184  )
        16           Si  tau(  16) = (  -0.6187184   0.7954951   0.7954951  )

     number of k points=     6
                       cart. coord. in units 2pi/alat
        k(    1) = (   0.0000000   0.0000000   0.0000000), wk =   0.0740741
        k(    2) = (  -0.2357023   0.2357023  -0.2357023), wk =   0.4444444
        k(    3) = (   0.0000000   0.4714045   0.0000000), wk =   0.4444444
        k(    4) = (   0.4714045  -0.0000000   0.4714045), wk =   0.4444444
        k(    5) = (  -0.2357023  -0.2357023  -0.2357023), wk =   0.1481481
        k(    6) = (  -0.4714045   0.4714045  -0.0000000), wk =   0.4444444

     Dense  grid:    47183 G-vectors     FFT dimensions: (  54,  54,  54)

     Estimated max dynamical RAM per process >      68.77 MB

     Estimated total dynamical RAM >     275.07 MB

     Initial potential from superposition of free atoms

     starting charge   63.99206, renormalised to   64.00000
     Starting wfcs are   64 randomized atomic wfcs

     total cpu time spent up to now is        1.9 secs

     Self-consistent Calculation

     iteration #  1     ecut=    30.00 Ry     beta= 0.70
     Davidson diagonalization with overlap
     ethr =  1.00E-02,  avg # of iterations =  2.0

     Threshold (ethr) on eigenvalues was too large:
     Diagonalizing with lowered threshold

     Davidson diagonalization with overlap
     ethr =  8.05E-04,  avg # of iterations =  1.0

     total cpu time spent up to now is        6.4 secs

     total energy              =    -126.77608914 Ry
     Harris-Foulkes estimate   =    -126.94724966 Ry
     estimated scf accuracy    <       0.50311909 Ry

     iteration #  2     ecut=    30.00 Ry     beta= 0.70
     Davidson diagonalization with overlap
     ethr =  7.86E-04,  avg # of iterations =  1.0

     total cpu time spent up to now is        8.5 secs

     total energy              =    -126.80099667 Ry
     Harris-Foulkes estimate   =    -126.80343238 Ry
     estimated scf accuracy    <       0.01759841 Ry

     iteration #  3     ecut=    30.00 Ry     beta= 0.70
     Davidson diagonalization with overlap
     ethr =  2.75E-05,  avg # of iterations =  2.8

     total cpu time spent up to now is       11.2 secs

     total energy              =    -126.80432784 Ry
     Harris-Foulkes estimate   =    -126.80457343 Ry
     estimated scf accuracy    <       0.00058061 Ry

     iteration #  4     ecut=    30.00 Ry     beta= 0.70
     Davidson diagonalization with overlap
     ethr =  9.07E-07,  avg # of iterations =  2.7

     total cpu time spent up to now is       13.8 secs

     total energy              =    -126.80447357 Ry
     Harris-Foulkes estimate   =    -126.80450309 Ry
     estimated scf accuracy    <       0.00006288 Ry

     iteration #  5     ecut=    30.00 Ry     beta= 0.70
     Davidson diagonalization with overlap
     ethr =  9.82E-08,  avg # of iterations =  2.7

     total cpu time spent up to now is       16.6 secs

     total energy              =    -126.80448411 Ry
     Harris-Foulkes estimate   =    -126.80448447 Ry
     estimated scf accuracy    <       0.00000125 Ry

     iteration #  6     ecut=    30.00 Ry     beta= 0.70
     Davidson diagonalization with overlap
     ethr =  1.95E-09,  avg # of iterations =  4.0

     total cpu time spent up to now is       19.4 secs

     total energy              =    -126.80448430 Ry
     Harris-Foulkes estimate   =    -126.80448446 Ry
     estimated scf accuracy    <       0.00000041 Ry

     iteration #  7     ecut=    30.00 Ry     beta= 0.70
     Davidson diagonalization with overlap
     ethr =  6.34E-10,  avg # of iterations =  2.0

     total cpu time spent up to now is       21.4 secs

     total energy              =    -126.80448433 Ry
     Harris-Foulkes estimate   =    -126.80448433 Ry
     estimated scf accuracy    <          6.9E-09 Ry

     iteration #  8     ecut=    30.00 Ry     beta= 0.70
     Davidson diagonalization with overlap
     ethr =  1.08E-11,  avg # of iterations =  3.7

     total cpu time spent up to now is       24.5 secs

     total energy              =    -126.80448433 Ry
     Harris-Foulkes estimate   =    -126.80448433 Ry
     estimated scf accuracy    <          5.4E-10 Ry

     iteration #  9     ecut=    30.00 Ry     beta= 0.70
     Davidson diagonalization with overlap
     ethr =  8.42E-13,  avg # of iterations =  2.2

     total cpu time spent up to now is       27.1 secs

     total energy              =    -126.80448433 Ry
     Harris-Foulkes estimate   =    -126.80448433 Ry
     estimated scf accuracy    <          1.5E-10 Ry

     iteration # 10     ecut=    30.00 Ry     beta= 0.70
     Davidson diagonalization with overlap
     ethr =  2.37E-13,  avg # of iterations =  2.0

     total cpu time spent up to now is       29.2 secs

     End of self-consistent calculation

          k = 0.0000 0.0000 0.0000 (  5961 PWs)   bands (ev):

    -5.8155  -3.4235  -3.4235  -3.4235  -3.4235  -1.6023  -1.6023  -1.6023
    -1.6023  -1.6023  -1.6023  -0.8241  -0.8241  -0.8241  -0.8241   3.3318
     3.3318   3.3318   3.3318   3.3318   3.3318   5.0226   5.0226   5.0226
     5.0226   5.0226   5.0226   5.0226   5.0226   6.2376   6.2376   6.2376

          k =-0.2357 0.2357-0.2357 (  5888 PWs)   bands (ev):

    -5.4484  -4.4122  -3.2684  -3.2684  -3.2684  -2.6919  -2.6919  -2.6919
    -0.4310  -0.4310  -0.4310  -0.3317  -0.3317  -0.3317   0.8538   2.5171
     2.5171   2.5171   3.4190   3.4190   3.4190   3.6361   3.6361   3.6361
     3.8477   4.4305   4.4305   4.4305   5.2229   5.2229   5.7796   5.7796

          k = 0.0000 0.4714 0.0000 (  5866 PWs)   bands (ev):

    -5.3237  -3.8799  -3.6665  -3.6665  -3.6665  -3.6665  -1.4719  -1.4719
    -1.4719  -1.4719   0.1856   0.1856   0.1856   0.1856   1.2436   2.5012
     2.5012   2.5012   2.5012   3.1363   3.1363   3.1363   3.1363   3.7744
     3.7744   4.2296   4.9204   4.9204   4.9204   4.9204   5.0207   5.0207

          k = 0.4714-0.0000 0.4714 (  5902 PWs)   bands (ev):

    -4.8497  -4.4936  -4.4936  -3.4838  -3.4838  -2.4810  -2.4695  -2.4695
    -0.6336  -0.6336  -0.5492   0.5956   0.5956   1.7102   1.7900   1.7900
     2.1382   2.1382   2.5213   2.5836   2.5836   3.4096   3.4096   3.7682
     3.8921   3.8921   4.0881   4.2160   4.2160   4.4590   4.4590   5.6671

          k =-0.2357-0.2357-0.2357 (  5888 PWs)   bands (ev):

    -5.4484  -4.4122  -3.2684  -3.2684  -3.2684  -2.6919  -2.6919  -2.6919
    -0.4310  -0.4310  -0.4310  -0.3317  -0.3317  -0.3317   0.8538   2.5171
     2.5171   2.5171   3.4190   3.4190   3.4190   3.6361   3.6361   3.6361
     3.8477   4.4305   4.4305   4.4305   5.2229   5.2229   5.7796   5.7796

          k =-0.4714 0.4714-0.0000 (  5902 PWs)   bands (ev):

    -4.8497  -4.4936  -4.4936  -3.4838  -3.4838  -2.4810  -2.4695  -2.4695
    -0.6336  -0.6336  -0.5492   0.5956   0.5956   1.7102   1.7900   1.7900
     2.1382   2.1382   2.5213   2.5836   2.5836   3.4096   3.4096   3.7682
     3.8921   3.8921   4.0881   4.2160   4.2160   4.4590   4.4590   5.6671

     highest occupied level (ev):     6.2376

!    total energy              =    -126.80448433 Ry
     Harris-Foulkes estimate   =    -126.80448433 Ry
     estimated scf accuracy    <          3.7E-11 Ry

     The total energy is the sum of the following terms:

     one-electron contribution =      38.28248546 Ry
     hartree contribution      =       8.66131300 Ry
     xc contribution           =     -38.55021482 Ry
     ewald contribution        =    -135.19806797 Ry

     convergence has been achieved in  10 iterations

     Forces acting on atoms (cartesian axes, Ry/au):

     atom    1 type  1   force =    -0.00000003   -0.00000003   -0.00000003
     atom    2 type  1   force =     0.00000003    0.00000003    0.00000003
     atom    3 type  1   force =     0.00000003    0.00000001    0.00000003
     atom    4 type  1   force =    -0.00000003   -0.00000001   -0.00000003
     atom    5 type  1   force =    -0.00000019   -0.00000011   -0.00000011
     atom    6 type  1   force =     0.00000019    0.00000011    0.00000011
     atom    7 type  1   force =    -0.00000011   -0.00000011   -0.00000019
     atom    8 type  1   force =     0.00000011    0.00000011    0.00000019
     atom    9 type  1   force =     0.00000003    0.00000003    0.00000001
     atom   10 type  1   force =    -0.00000003   -0.00000003   -0.00000001
     atom   11 type  1   force =     0.00000001    0.00000003    0.00000003
     atom   12 type  1   force =    -0.00000001   -0.00000003   -0.00000003
     atom   13 type  1   force =    -0.00000011   -0.00000019   -0.00000011
     atom   14 type  1   force =     0.00000011    0.00000019    0.00000011
     atom   15 type  1   force =    -0.00000014   -0.00000014   -0.00000014
     atom   16 type  1   force =     0.00000014    0.00000014    0.00000014

     Total force =     0.000001     Total SCF correction =     0.000001
     SCF correction compared to forces is large: reduce conv_thr to get better values


     Computing stress (Cartesian axis) and pressure

          total   stress  (Ry/bohr**3)                   (kbar)     P=        1.57
   0.00001068  -0.00000000  -0.00000000            1.57       -0.00       -0.00
  -0.00000000   0.00001068  -0.00000000           -0.00        1.57       -0.00
  -0.00000000  -0.00000000   0.00001068           -0.00       -0.00        1.57


     Writing output data file ./out/silicon.save/

     init_run     :      1.75s CPU      1.79s WALL (       1 calls)
     electrons    :     26.90s CPU     27.32s WALL (       1 calls)
     forces       :      0.33s CPU      0.33s WALL (       1 calls)
     stress       :      0.71s CPU      0.71s WALL (       1 calls)

     Called by init_run:
     wfcinit      :      1.54s CPU      1.57s WALL (       1 calls)
     potinit      :      0.05s CPU      0.05s WALL (       1 calls)
     hinit0       :      0.10s CPU      0.10s WALL (       1 calls)

     Called by electrons:
     c_bands      :     22.12s CPU     22.46s WALL (      11 calls)
     sum_band     :      4.14s CPU      4.19s WALL (      11 calls)
     v_of_rho     :      0.26s CPU      0.27s WALL (      11 calls)
     mix_rho      :      0.26s CPU      0.27s WALL (      11 calls)

     Called by c_bands:
     init_us_2    :      0.18s CPU      0.19s WALL (      50 calls)
     cegterg      :     20.73s CPU     21.06s WALL (      22 calls)

     Called by sum_band:

     Called by *egterg:
     h_psi        :     20.23s CPU     20.53s WALL (      84 calls)
     g_psi        :      0.06s CPU      0.06s WALL (      60 calls)
     cdiaghg      :      0.26s CPU      0.26s WALL (      80 calls)

     Called by h_psi:
     h_psi:calbec :      0.47s CPU      0.47s WALL (      84 calls)
     vloc_psi     :     19.23s CPU     19.51s WALL (      84 calls)
     add_vuspsi   :      0.45s CPU      0.45s WALL (      84 calls)

     General routines
     calbec       :      0.54s CPU      0.55s WALL (      94 calls)
     fft          :      0.30s CPU      0.30s WALL (      38 calls)
     ffts         :      0.08s CPU      0.08s WALL (      11 calls)
     fftw         :     20.29s CPU     20.58s WALL (    4710 calls)

     Parallel routines

     PWSCF        :     29.80s CPU     30.28s WALL


   This run was terminated on:  14:56:11   2Nov2020            

=------------------------------------------------------------------------------=
   JOB DONE.
=------------------------------------------------------------------------------=
