
     Program PWSCF v.6.5 starts on  2Nov2020 at 14:19: 7 

     This program is part of the open-source Quantum ESPRESSO suite
     for quantum simulation of materials; please cite
         "P. Giannozzi et al., J. Phys.:Condens. Matter 21 395502 (2009);
         "P. Giannozzi et al., J. Phys.:Condens. Matter 29 465901 (2017);
          URL http://www.quantum-espresso.org", 
     in publications or presentations arising from this work. More details at
     http://www.quantum-espresso.org/quote

     Parallel version (MPI), running on     4 processors

     MPI processes distributed on     1 nodes
     K-points division:     npool     =       4
     Reading input from DISP.supercell_template.in.07

     Current dimensions of program PWSCF are:
     Max number of different atomic species (ntypx) = 10
     Max number of k-points (npk) =  40000
     Max angular momentum in pseudopotentials (lmaxx) =  3

     Subspace diagonalization in iterative solution of the eigenvalue problem:
     a serial algorithm will be used

     Message from routine setup:
     using ibrav=0 with symmetry is DISCOURAGED, use correct ibrav instead

     G-vector sticks info
     --------------------
     sticks:   dense  smooth     PW     G-vecs:    dense   smooth      PW
     Sum        1723    1723    475                47183    47183    6855



     bravais-lattice index     =            0
     lattice parameter (alat)  =      14.4250  a.u.
     unit-cell volume          =    2122.4160 (a.u.)^3
     number of atoms/cell      =           16
     number of atomic types    =            1
     number of electrons       =        64.00
     number of Kohn-Sham states=           32
     kinetic-energy cutoff     =      30.0000  Ry
     charge density cutoff     =     120.0000  Ry
     convergence threshold     =      1.0E-10
     mixing beta               =       0.7000
     number of iterations used =            8  plain     mixing
     Exchange-correlation= SLA PZ NOGX NOGC
                           (   1   1   0   0   0   0   0)

     celldm(1)=  14.424978  celldm(2)=   0.000000  celldm(3)=   0.000000
     celldm(4)=   0.000000  celldm(5)=   0.000000  celldm(6)=   0.000000

     crystal axes: (cart. coord. in units of alat)
               a(1) = (  -0.707107   0.000000   0.707107 )  
               a(2) = (   0.000000   0.707107   0.707107 )  
               a(3) = (  -0.707107   0.707107   0.000000 )  

     reciprocal axes: (cart. coord. in units 2 pi/alat)
               b(1) = ( -0.707107 -0.707107  0.707107 )  
               b(2) = (  0.707107  0.707107  0.707107 )  
               b(3) = ( -0.707107  0.707107 -0.707107 )  


     PseudoPot. # 1 for Si read from file:
     ../../pseudoPotentials/Si.pz-vbc.UPF
     MD5 check sum: 9f25e6ff280f3123e9b3a84715b2e9c9
     Pseudo is Norm-conserving, Zval =  4.0
     Generated by new atomic code, or converted to UPF format
     Using radial grid of  431 points,  2 beta functions with: 
                l(1) =   0
                l(2) =   1

     atomic species   valence    mass     pseudopotential
        Si             4.00    28.08600     Si( 1.00)

      2 Sym. Ops. (no inversion) found



   Cartesian axes

     site n.     atom                  positions (alat units)
         1           Si  tau(   1) = (  -0.0883883  -0.0883883  -0.0896984  )
         2           Si  tau(   2) = (   0.0896984   0.0883883   0.0883883  )
         3           Si  tau(   3) = (  -0.4419417  -0.0883883   0.2651650  )
         4           Si  tau(   4) = (  -0.2651650   0.0883883   0.4419417  )
         5           Si  tau(   5) = (  -0.0883883   0.2651650   0.2651650  )
         6           Si  tau(   6) = (   0.0883883   0.4419417   0.4419417  )
         7           Si  tau(   7) = (  -0.4419417   0.2651650   0.6187184  )
         8           Si  tau(   8) = (  -0.2651650   0.4419417   0.7954951  )
         9           Si  tau(   9) = (  -0.4419417   0.2651650  -0.0883883  )
        10           Si  tau(  10) = (  -0.2651650   0.4419417   0.0883883  )
        11           Si  tau(  11) = (  -0.7954951   0.2651650   0.2651650  )
        12           Si  tau(  12) = (  -0.6187184   0.4419417   0.4419417  )
        13           Si  tau(  13) = (  -0.4419417   0.6187184   0.2651650  )
        14           Si  tau(  14) = (  -0.2651650   0.7954951   0.4419417  )
        15           Si  tau(  15) = (  -0.7954951   0.6187184   0.6187184  )
        16           Si  tau(  16) = (  -0.6187184   0.7954951   0.7954951  )

     number of k points=    10
                       cart. coord. in units 2pi/alat
        k(    1) = (   0.0000000   0.0000000   0.0000000), wk =   0.0740741
        k(    2) = (  -0.2357023   0.2357023  -0.2357023), wk =   0.1481481
        k(    3) = (   0.0000000   0.4714045   0.0000000), wk =   0.1481481
        k(    4) = (   0.4714045  -0.0000000   0.4714045), wk =   0.1481481
        k(    5) = (   0.2357023   0.2357023   0.2357023), wk =   0.1481481
        k(    6) = (  -0.2357023  -0.2357023   0.2357023), wk =   0.2962963
        k(    7) = (   0.4714045   0.0000000   0.0000000), wk =   0.2962963
        k(    8) = (   0.4714045   0.0000000  -0.4714045), wk =   0.1481481
        k(    9) = (  -0.0000000   0.4714045  -0.4714045), wk =   0.2962963
        k(   10) = (   0.0000000  -0.4714045  -0.4714045), wk =   0.2962963

     Dense  grid:    47183 G-vectors     FFT dimensions: (  54,  54,  54)

     Estimated max dynamical RAM per process >      71.64 MB

     Estimated total dynamical RAM >     286.57 MB

     Initial potential from superposition of free atoms

     starting charge   63.99206, renormalised to   64.00000
     Starting wfcs are   64 randomized atomic wfcs

     total cpu time spent up to now is        1.9 secs

     Self-consistent Calculation

     iteration #  1     ecut=    30.00 Ry     beta= 0.70
     Davidson diagonalization with overlap
     ethr =  1.00E-02,  avg # of iterations =  2.0

     Threshold (ethr) on eigenvalues was too large:
     Diagonalizing with lowered threshold

     Davidson diagonalization with overlap
     ethr =  8.05E-04,  avg # of iterations =  1.0

     total cpu time spent up to now is        7.1 secs

     total energy              =    -126.77598063 Ry
     Harris-Foulkes estimate   =    -126.94714006 Ry
     estimated scf accuracy    <       0.50308947 Ry

     iteration #  2     ecut=    30.00 Ry     beta= 0.70
     Davidson diagonalization with overlap
     ethr =  7.86E-04,  avg # of iterations =  1.0

     total cpu time spent up to now is        9.3 secs

     total energy              =    -126.80088440 Ry
     Harris-Foulkes estimate   =    -126.80332519 Ry
     estimated scf accuracy    <       0.01760572 Ry

     iteration #  3     ecut=    30.00 Ry     beta= 0.70
     Davidson diagonalization with overlap
     ethr =  2.75E-05,  avg # of iterations =  2.9

     total cpu time spent up to now is       12.4 secs

     total energy              =    -126.80420254 Ry
     Harris-Foulkes estimate   =    -126.80445464 Ry
     estimated scf accuracy    <       0.00058758 Ry

     iteration #  4     ecut=    30.00 Ry     beta= 0.70
     Davidson diagonalization with overlap
     ethr =  9.18E-07,  avg # of iterations =  2.7

     total cpu time spent up to now is       15.6 secs

     total energy              =    -126.80434930 Ry
     Harris-Foulkes estimate   =    -126.80439919 Ry
     estimated scf accuracy    <       0.00011381 Ry

     iteration #  5     ecut=    30.00 Ry     beta= 0.70
     Davidson diagonalization with overlap
     ethr =  1.78E-07,  avg # of iterations =  2.3

     total cpu time spent up to now is       18.7 secs

     total energy              =    -126.80436428 Ry
     Harris-Foulkes estimate   =    -126.80437163 Ry
     estimated scf accuracy    <       0.00001667 Ry

     iteration #  6     ecut=    30.00 Ry     beta= 0.70
     Davidson diagonalization with overlap
     ethr =  2.60E-08,  avg # of iterations =  2.2

     total cpu time spent up to now is       21.7 secs

     total energy              =    -126.80436699 Ry
     Harris-Foulkes estimate   =    -126.80436708 Ry
     estimated scf accuracy    <       0.00000034 Ry

     iteration #  7     ecut=    30.00 Ry     beta= 0.70
     Davidson diagonalization with overlap
     ethr =  5.27E-10,  avg # of iterations =  3.1

     total cpu time spent up to now is       25.2 secs

     total energy              =    -126.80436707 Ry
     Harris-Foulkes estimate   =    -126.80436709 Ry
     estimated scf accuracy    <       0.00000007 Ry

     iteration #  8     ecut=    30.00 Ry     beta= 0.70
     Davidson diagonalization with overlap
     ethr =  1.02E-10,  avg # of iterations =  1.7

     total cpu time spent up to now is       27.7 secs

     total energy              =    -126.80436707 Ry
     Harris-Foulkes estimate   =    -126.80436708 Ry
     estimated scf accuracy    <          5.4E-09 Ry

     iteration #  9     ecut=    30.00 Ry     beta= 0.70
     Davidson diagonalization with overlap
     ethr =  8.42E-12,  avg # of iterations =  3.0

     total cpu time spent up to now is       30.7 secs

     total energy              =    -126.80436708 Ry
     Harris-Foulkes estimate   =    -126.80436708 Ry
     estimated scf accuracy    <          1.3E-10 Ry

     iteration # 10     ecut=    30.00 Ry     beta= 0.70
     Davidson diagonalization with overlap
     ethr =  1.98E-13,  avg # of iterations =  3.5

     total cpu time spent up to now is       34.1 secs

     End of self-consistent calculation

          k = 0.0000 0.0000 0.0000 (  5961 PWs)   bands (ev):

    -5.8156  -3.4300  -3.4272  -3.4200  -3.4172  -1.6148  -1.6064  -1.6063
    -1.6022  -1.5958  -1.5885  -0.8313  -0.8254  -0.8227  -0.8165   3.3274
     3.3295   3.3311   3.3318   3.3329   3.3380   5.0109   5.0125   5.0205
     5.0210   5.0227   5.0261   5.0281   5.0389   6.2290   6.2377   6.2465

          k =-0.2357 0.2357-0.2357 (  5888 PWs)   bands (ev):

    -5.4483  -4.4114  -3.2757  -3.2675  -3.2648  -2.6996  -2.6900  -2.6877
    -0.4340  -0.4295  -0.4236  -0.3376  -0.3279  -0.3233   0.8496   2.5101
     2.5147   2.5167   3.4097   3.4160   3.4189   3.6350   3.6367   3.6415
     3.8432   4.4300   4.4316   4.4378   5.2214   5.2278   5.7788   5.7859

          k = 0.0000 0.4714 0.0000 (  5866 PWs)   bands (ev):

    -5.3238  -3.8802  -3.6718  -3.6705  -3.6694  -3.6543  -1.4826  -1.4736
    -1.4702  -1.4611   0.1785   0.1802   0.1864   0.1971   1.2436   2.4959
     2.4999   2.5024   2.5065   3.1294   3.1333   3.1363   3.1460   3.7744
     3.7745   4.2295   4.9169   4.9180   4.9196   4.9273   5.0208   5.0211

          k = 0.4714-0.0000 0.4714 (  5902 PWs)   bands (ev):

    -4.8499  -4.4942  -4.4931  -3.4883  -3.4794  -2.4844  -2.4695  -2.4661
    -0.6339  -0.6336  -0.5489   0.5887   0.6024   1.7099   1.7847   1.7953
     2.1382   2.1383   2.5208   2.5816   2.5861   3.4095   3.4095   3.7679
     3.8891   3.8953   4.0881   4.2100   4.2223   4.4585   4.4597   5.6671

          k = 0.2357 0.2357 0.2357 (  5888 PWs)   bands (ev):

    -5.4486  -4.4131  -3.2721  -3.2695  -3.2614  -2.6961  -2.6939  -2.6840
    -0.4400  -0.4324  -0.4286  -0.3386  -0.3352  -0.3254   0.8581   2.5175
     2.5185   2.5249   3.4189   3.4199   3.4303   3.6319   3.6353   3.6360
     3.8526   4.4246   4.4291   4.4298   5.2178   5.2244   5.7735   5.7805

          k =-0.2357-0.2357 0.2357 (  5888 PWs)   bands (ev):

    -5.4485  -4.4123  -3.2744  -3.2685  -3.2626  -2.6983  -2.6919  -2.6854
    -0.4385  -0.4312  -0.4246  -0.3385  -0.3315  -0.3237   0.8538   2.5132
     2.5172   2.5208   3.4135   3.4187   3.4247   3.6330   3.6354   3.6398
     3.8478   4.4266   4.4300   4.4349   5.2172   5.2285   5.7736   5.7858

          k = 0.4714 0.0000 0.0000 (  5866 PWs)   bands (ev):

    -5.3238  -3.8802  -3.6733  -3.6697  -3.6633  -3.6596  -1.4766  -1.4760
    -1.4719  -1.4631   0.1778   0.1845   0.1866   0.1933   1.2437   2.4981
     2.5004   2.5020   2.5044   3.1304   3.1346   3.1379   3.1422   3.7720
     3.7768   4.2296   4.9111   4.9181   4.9228   4.9289   5.0177   5.0248

          k = 0.4714 0.0000-0.4714 (  5902 PWs)   bands (ev):

    -4.8499  -4.4937  -4.4936  -3.4884  -3.4794  -2.4825  -2.4728  -2.4646
    -0.6399  -0.6275  -0.5491   0.5887   0.6024   1.7101   1.7898   1.7899
     2.1376   2.1390   2.5209   2.5817   2.5861   3.4056   3.4132   3.7679
     3.8891   3.8952   4.0881   4.2160   4.2161   4.4590   4.4594   5.6672

          k =-0.0000 0.4714-0.4714 (  5902 PWs)   bands (ev):

    -4.8496  -4.4978  -4.4892  -3.4880  -3.4814  -2.4817  -2.4719  -2.4662
    -0.6344  -0.6282  -0.5530   0.5958   0.6027   1.7091   1.7854   1.7927
     2.1332   2.1380   2.5170   2.5815   2.5854   3.4087   3.4130   3.7689
     3.8844   3.8934   4.0907   4.2102   4.2175   4.4566   4.4674   5.6720

          k = 0.0000-0.4714-0.4714 (  5902 PWs)   bands (ev):

    -4.8502  -4.4981  -4.4895  -3.4864  -3.4797  -2.4842  -2.4718  -2.4642
    -0.6392  -0.6329  -0.5451   0.5885   0.5954   1.7109   1.7873   1.7946
     2.1384   2.1431   2.5252   2.5823   2.5861   3.4060   3.4103   3.7673
     3.8908   3.8997   4.0853   4.2146   4.2221   4.4507   4.4615   5.6622

     highest occupied level (ev):     6.2465

!    total energy              =    -126.80436708 Ry
     Harris-Foulkes estimate   =    -126.80436708 Ry
     estimated scf accuracy    <          5.4E-11 Ry

     The total energy is the sum of the following terms:

     one-electron contribution =      38.28190974 Ry
     hartree contribution      =       8.66155353 Ry
     xc contribution           =     -38.55023255 Ry
     ewald contribution        =    -135.19759780 Ry

     convergence has been achieved in  10 iterations

     Forces acting on atoms (cartesian axes, Ry/au):

     atom    1 type  1   force =     0.00133863    0.00085817    0.00619365
     atom    2 type  1   force =    -0.00619365   -0.00085817   -0.00133863
     atom    3 type  1   force =     0.00014723   -0.00005483   -0.00012044
     atom    4 type  1   force =     0.00012044    0.00005483   -0.00014723
     atom    5 type  1   force =     0.00136225   -0.00109105   -0.00106424
     atom    6 type  1   force =     0.00056928   -0.00091243   -0.00137461
     atom    7 type  1   force =     0.00137461    0.00091243   -0.00056928
     atom    8 type  1   force =     0.00106424    0.00109105   -0.00136225
     atom    9 type  1   force =    -0.00005272    0.00005383    0.00028975
     atom   10 type  1   force =     0.00022851   -0.00014576    0.00005312
     atom   11 type  1   force =    -0.00005312    0.00014576   -0.00022851
     atom   12 type  1   force =    -0.00028975   -0.00005383    0.00005272
     atom   13 type  1   force =     0.00117382   -0.00091283    0.00073856
     atom   14 type  1   force =    -0.00073856    0.00091283   -0.00117382
     atom   15 type  1   force =    -0.00005212    0.00005396   -0.00000090
     atom   16 type  1   force =     0.00000090   -0.00005396    0.00005212

     Total force =     0.010108     Total SCF correction =     0.000012


     Computing stress (Cartesian axis) and pressure

          total   stress  (Ry/bohr**3)                   (kbar)     P=        1.58
   0.00001074  -0.00000326   0.00000002            1.58       -0.48        0.00
  -0.00000326   0.00001082  -0.00000326           -0.48        1.59       -0.48
   0.00000002  -0.00000326   0.00001074            0.00       -0.48        1.58


     Writing output data file ./out/silicon.save/

     init_run     :      1.70s CPU      1.79s WALL (       1 calls)
     electrons    :     31.89s CPU     32.25s WALL (       1 calls)
     forces       :      0.26s CPU      0.26s WALL (       1 calls)
     stress       :      0.73s CPU      0.73s WALL (       1 calls)

     Called by init_run:
     wfcinit      :      1.59s CPU      1.67s WALL (       1 calls)
     potinit      :      0.02s CPU      0.03s WALL (       1 calls)
     hinit0       :      0.06s CPU      0.07s WALL (       1 calls)

     Called by electrons:
     c_bands      :     26.37s CPU     26.68s WALL (      11 calls)
     sum_band     :      4.96s CPU      5.01s WALL (      11 calls)
     v_of_rho     :      0.22s CPU      0.23s WALL (      11 calls)
     mix_rho      :      0.22s CPU      0.23s WALL (      11 calls)

     Called by c_bands:
     init_us_2    :      0.23s CPU      0.23s WALL (      75 calls)
     cegterg      :     25.52s CPU     25.81s WALL (      33 calls)

     Called by sum_band:

     Called by *egterg:
     h_psi        :     24.66s CPU     24.97s WALL (     122 calls)
     g_psi        :      0.07s CPU      0.07s WALL (      86 calls)
     cdiaghg      :      0.33s CPU      0.34s WALL (     116 calls)

     Called by h_psi:
     h_psi:calbec :      0.56s CPU      0.56s WALL (     122 calls)
     vloc_psi     :     23.47s CPU     23.75s WALL (     122 calls)
     add_vuspsi   :      0.53s CPU      0.53s WALL (     122 calls)

     General routines
     calbec       :      0.64s CPU      0.64s WALL (     137 calls)
     fft          :      0.22s CPU      0.22s WALL (      38 calls)
     ffts         :      0.07s CPU      0.07s WALL (      11 calls)
     fftw         :     24.64s CPU     24.93s WALL (    7174 calls)

     Parallel routines

     PWSCF        :     34.67s CPU     35.16s WALL


   This run was terminated on:  14:19:43   2Nov2020            

=------------------------------------------------------------------------------=
   JOB DONE.
=------------------------------------------------------------------------------=
