
     Program PWSCF v.6.5 starts on  2Nov2020 at 14:53:34 

     This program is part of the open-source Quantum ESPRESSO suite
     for quantum simulation of materials; please cite
         "P. Giannozzi et al., J. Phys.:Condens. Matter 21 395502 (2009);
         "P. Giannozzi et al., J. Phys.:Condens. Matter 29 465901 (2017);
          URL http://www.quantum-espresso.org", 
     in publications or presentations arising from this work. More details at
     http://www.quantum-espresso.org/quote

     Parallel version (MPI), running on     4 processors

     MPI processes distributed on     1 nodes
     K-points division:     npool     =       4
     Reading input from DISP.supercell_template.in.48

     Current dimensions of program PWSCF are:
     Max number of different atomic species (ntypx) = 10
     Max number of k-points (npk) =  40000
     Max angular momentum in pseudopotentials (lmaxx) =  3

     Subspace diagonalization in iterative solution of the eigenvalue problem:
     a serial algorithm will be used

     Found symmetry operation: I + ( -0.5000 -0.0000  0.0000)
     This is a supercell, fractional translations are disabled
     Message from routine setup:
     using ibrav=0 with symmetry is DISCOURAGED, use correct ibrav instead

     G-vector sticks info
     --------------------
     sticks:   dense  smooth     PW     G-vecs:    dense   smooth      PW
     Sum        1723    1723    475                47183    47183    6855



     bravais-lattice index     =            0
     lattice parameter (alat)  =      14.4250  a.u.
     unit-cell volume          =    2122.4160 (a.u.)^3
     number of atoms/cell      =           16
     number of atomic types    =            1
     number of electrons       =        64.00
     number of Kohn-Sham states=           32
     kinetic-energy cutoff     =      30.0000  Ry
     charge density cutoff     =     120.0000  Ry
     convergence threshold     =      1.0E-10
     mixing beta               =       0.7000
     number of iterations used =            8  plain     mixing
     Exchange-correlation= SLA PZ NOGX NOGC
                           (   1   1   0   0   0   0   0)

     celldm(1)=  14.424978  celldm(2)=   0.000000  celldm(3)=   0.000000
     celldm(4)=   0.000000  celldm(5)=   0.000000  celldm(6)=   0.000000

     crystal axes: (cart. coord. in units of alat)
               a(1) = (  -0.707107   0.000000   0.707107 )  
               a(2) = (   0.000000   0.707107   0.707107 )  
               a(3) = (  -0.707107   0.707107   0.000000 )  

     reciprocal axes: (cart. coord. in units 2 pi/alat)
               b(1) = ( -0.707107 -0.707107  0.707107 )  
               b(2) = (  0.707107  0.707107  0.707107 )  
               b(3) = ( -0.707107  0.707107 -0.707107 )  


     PseudoPot. # 1 for Si read from file:
     ../../pseudoPotentials/Si.pz-vbc.UPF
     MD5 check sum: 9f25e6ff280f3123e9b3a84715b2e9c9
     Pseudo is Norm-conserving, Zval =  4.0
     Generated by new atomic code, or converted to UPF format
     Using radial grid of  431 points,  2 beta functions with: 
                l(1) =   0
                l(2) =   1

     atomic species   valence    mass     pseudopotential
        Si             4.00    28.08600     Si( 1.00)

      2 Sym. Ops. (no inversion) found



   Cartesian axes

     site n.     atom                  positions (alat units)
         1           Si  tau(   1) = (  -0.0883883  -0.0896984  -0.0883883  )
         2           Si  tau(   2) = (   0.0883883   0.0883883   0.0883883  )
         3           Si  tau(   3) = (  -0.4419417  -0.0896984   0.2651650  )
         4           Si  tau(   4) = (  -0.2651650   0.0883883   0.4419417  )
         5           Si  tau(   5) = (  -0.0883883   0.2651650   0.2651650  )
         6           Si  tau(   6) = (   0.0883883   0.4419417   0.4419417  )
         7           Si  tau(   7) = (  -0.4419417   0.2651650   0.6187184  )
         8           Si  tau(   8) = (  -0.2651650   0.4419417   0.7954951  )
         9           Si  tau(   9) = (  -0.4419417   0.2651650  -0.0883883  )
        10           Si  tau(  10) = (  -0.2651650   0.4419417   0.0883883  )
        11           Si  tau(  11) = (  -0.7954951   0.2651650   0.2651650  )
        12           Si  tau(  12) = (  -0.6187184   0.4419417   0.4419417  )
        13           Si  tau(  13) = (  -0.4419417   0.6187184   0.2651650  )
        14           Si  tau(  14) = (  -0.2651650   0.7954951   0.4419417  )
        15           Si  tau(  15) = (  -0.7954951   0.6187184   0.6187184  )
        16           Si  tau(  16) = (  -0.6187184   0.7954951   0.7954951  )

     number of k points=    10
                       cart. coord. in units 2pi/alat
        k(    1) = (   0.0000000   0.0000000   0.0000000), wk =   0.0740741
        k(    2) = (  -0.2357023   0.2357023  -0.2357023), wk =   0.1481481
        k(    3) = (   0.0000000   0.4714045   0.0000000), wk =   0.1481481
        k(    4) = (   0.4714045  -0.0000000   0.4714045), wk =   0.1481481
        k(    5) = (   0.2357023   0.2357023   0.2357023), wk =   0.1481481
        k(    6) = (  -0.2357023  -0.2357023   0.2357023), wk =   0.2962963
        k(    7) = (   0.4714045   0.0000000   0.0000000), wk =   0.2962963
        k(    8) = (   0.4714045   0.0000000  -0.4714045), wk =   0.1481481
        k(    9) = (  -0.0000000   0.4714045  -0.4714045), wk =   0.2962963
        k(   10) = (   0.0000000  -0.4714045  -0.4714045), wk =   0.2962963

     Dense  grid:    47183 G-vectors     FFT dimensions: (  54,  54,  54)

     Estimated max dynamical RAM per process >      71.64 MB

     Estimated total dynamical RAM >     286.57 MB

     Initial potential from superposition of free atoms

     starting charge   63.99206, renormalised to   64.00000
     Starting wfcs are   64 randomized atomic wfcs

     total cpu time spent up to now is        2.7 secs

     Self-consistent Calculation

     iteration #  1     ecut=    30.00 Ry     beta= 0.70
     Davidson diagonalization with overlap
     ethr =  1.00E-02,  avg # of iterations =  2.0

     Threshold (ethr) on eigenvalues was too large:
     Diagonalizing with lowered threshold

     Davidson diagonalization with overlap
     ethr =  8.05E-04,  avg # of iterations =  1.0

     total cpu time spent up to now is       10.1 secs

     total energy              =    -126.77599383 Ry
     Harris-Foulkes estimate   =    -126.94714628 Ry
     estimated scf accuracy    <       0.50307925 Ry

     iteration #  2     ecut=    30.00 Ry     beta= 0.70
     Davidson diagonalization with overlap
     ethr =  7.86E-04,  avg # of iterations =  1.0

     total cpu time spent up to now is       13.6 secs

     total energy              =    -126.80089504 Ry
     Harris-Foulkes estimate   =    -126.80333443 Ry
     estimated scf accuracy    <       0.01760424 Ry

     iteration #  3     ecut=    30.00 Ry     beta= 0.70
     Davidson diagonalization with overlap
     ethr =  2.75E-05,  avg # of iterations =  2.9

     total cpu time spent up to now is       17.3 secs

     total energy              =    -126.80421610 Ry
     Harris-Foulkes estimate   =    -126.80446601 Ry
     estimated scf accuracy    <       0.00058533 Ry

     iteration #  4     ecut=    30.00 Ry     beta= 0.70
     Davidson diagonalization with overlap
     ethr =  9.15E-07,  avg # of iterations =  2.7

     total cpu time spent up to now is       21.5 secs

     total energy              =    -126.80436227 Ry
     Harris-Foulkes estimate   =    -126.80440447 Ry
     estimated scf accuracy    <       0.00009493 Ry

     iteration #  5     ecut=    30.00 Ry     beta= 0.70
     Davidson diagonalization with overlap
     ethr =  1.48E-07,  avg # of iterations =  2.4

     total cpu time spent up to now is       25.7 secs

     total energy              =    -126.80437437 Ry
     Harris-Foulkes estimate   =    -126.80438123 Ry
     estimated scf accuracy    <       0.00001569 Ry

     iteration #  6     ecut=    30.00 Ry     beta= 0.70
     Davidson diagonalization with overlap
     ethr =  2.45E-08,  avg # of iterations =  2.3

     total cpu time spent up to now is       29.6 secs

     total energy              =    -126.80437709 Ry
     Harris-Foulkes estimate   =    -126.80437719 Ry
     estimated scf accuracy    <       0.00000037 Ry

     iteration #  7     ecut=    30.00 Ry     beta= 0.70
     Davidson diagonalization with overlap
     ethr =  5.75E-10,  avg # of iterations =  3.2

     total cpu time spent up to now is       34.0 secs

     total energy              =    -126.80437717 Ry
     Harris-Foulkes estimate   =    -126.80437719 Ry
     estimated scf accuracy    <       0.00000006 Ry

     iteration #  8     ecut=    30.00 Ry     beta= 0.70
     Davidson diagonalization with overlap
     ethr =  9.45E-11,  avg # of iterations =  2.0

     total cpu time spent up to now is       37.2 secs

     total energy              =    -126.80437717 Ry
     Harris-Foulkes estimate   =    -126.80437717 Ry
     estimated scf accuracy    <          2.5E-09 Ry

     iteration #  9     ecut=    30.00 Ry     beta= 0.70
     Davidson diagonalization with overlap
     ethr =  3.84E-12,  avg # of iterations =  3.7

     total cpu time spent up to now is       42.3 secs

     End of self-consistent calculation

          k = 0.0000 0.0000 0.0000 (  5961 PWs)   bands (ev):

    -5.8156  -3.4333  -3.4275  -3.4196  -3.4139  -1.6104  -1.6100  -1.6026
    -1.6023  -1.5944  -1.5942  -0.8343  -0.8255  -0.8226  -0.8135   3.3273
     3.3280   3.3318   3.3319   3.3357   3.3361   5.0041   5.0167   5.0186
     5.0202   5.0250   5.0267   5.0287   5.0409   6.2256   6.2376   6.2500

          k =-0.2357 0.2357-0.2357 (  5888 PWs)   bands (ev):

    -5.4486  -4.4131  -3.2723  -3.2707  -3.2600  -2.6955  -2.6928  -2.6856
    -0.4415  -0.4341  -0.4263  -0.3364  -0.3323  -0.3297   0.8581   2.5181
     2.5214   2.5214   3.4183   3.4223   3.4285   3.6311   3.6340   3.6380
     3.8524   4.4242   4.4278   4.4317   5.2145   5.2277   5.7703   5.7839

          k = 0.0000 0.4714 0.0000 (  5866 PWs)   bands (ev):

    -5.3238  -3.8802  -3.6735  -3.6699  -3.6631  -3.6592  -1.4808  -1.4721
    -1.4719  -1.4630   0.1771   0.1815   0.1896   0.1941   1.2437   2.5008
     2.5012   2.5013   2.5018   3.1320   3.1351   3.1375   3.1407   3.7694
     3.7792   4.2296   4.9016   4.9182   4.9226   4.9374   5.0159   5.0275

          k = 0.4714-0.0000 0.4714 (  5902 PWs)   bands (ev):

    -4.8506  -4.5024  -4.4853  -3.4872  -3.4772  -2.4854  -2.4737  -2.4612
    -0.6393  -0.6376  -0.5412   0.5881   0.5886   1.7117   1.7869   1.7971
     2.1388   2.1480   2.5299   2.5807   2.5878   3.4051   3.4086   3.7667
     3.8901   3.9068   4.0820   4.2164   4.2245   4.4427   4.4637   5.6575

          k = 0.2357 0.2357 0.2357 (  5888 PWs)   bands (ev):

    -5.4486  -4.4131  -3.2723  -3.2707  -3.2600  -2.6955  -2.6928  -2.6856
    -0.4415  -0.4341  -0.4263  -0.3364  -0.3323  -0.3297   0.8581   2.5181
     2.5214   2.5214   3.4183   3.4223   3.4285   3.6311   3.6340   3.6380
     3.8524   4.4242   4.4278   4.4317   5.2145   5.2277   5.7703   5.7839

          k =-0.2357-0.2357 0.2357 (  5888 PWs)   bands (ev):

    -5.4483  -4.4114  -3.2770  -3.2663  -3.2647  -2.6982  -2.6907  -2.6883
    -0.4363  -0.4283  -0.4218  -0.3332  -0.3296  -0.3266   0.8496   2.5125
     2.5129   2.5161   3.4091   3.4158   3.4196   3.6344   3.6382   3.6408
     3.8433   4.4296   4.4333   4.4365   5.2181   5.2312   5.7754   5.7893

          k = 0.4714 0.0000 0.0000 (  5866 PWs)   bands (ev):

    -5.3238  -3.8802  -3.6756  -3.6734  -3.6595  -3.6574  -1.4792  -1.4759
    -1.4679  -1.4645   0.1758   0.1840   0.1872   0.1952   1.2436   2.4965
     2.4991   2.5034   2.5057   3.1264   3.1332   3.1394   3.1461   3.7745
     3.7745   4.2295   4.9156   4.9171   4.9238   4.9254   5.0208   5.0211

          k = 0.4714 0.0000-0.4714 (  5902 PWs)   bands (ev):

    -4.8492  -4.5021  -4.4848  -3.4904  -3.4806  -2.4814  -2.4730  -2.4653
    -0.6296  -0.6281  -0.5570   0.6025   0.6032   1.7082   1.7828   1.7931
     2.1282   2.1376   2.5133   2.5795   2.5867   3.4105   3.4141   3.7698
     3.8768   3.8940   4.0935   4.2081   4.2156   4.4542   4.4754   5.6769

          k =-0.0000 0.4714-0.4714 (  5902 PWs)   bands (ev):

    -4.8499  -4.4942  -4.4932  -3.4839  -3.4838  -2.4825  -2.4727  -2.4646
    -0.6399  -0.6274  -0.5491   0.5955   0.5956   1.7099   1.7849   1.7950
     2.1376   2.1389   2.5204   2.5837   2.5846   3.4055   3.4133   3.7678
     3.8921   3.8925   4.0881   4.2101   4.2222   4.4586   4.4597   5.6671

          k = 0.0000-0.4714-0.4714 (  5902 PWs)   bands (ev):

    -4.8499  -4.4942  -4.4932  -3.4839  -3.4838  -2.4825  -2.4727  -2.4646
    -0.6399  -0.6274  -0.5491   0.5955   0.5956   1.7099   1.7849   1.7950
     2.1376   2.1389   2.5204   2.5837   2.5846   3.4055   3.4133   3.7678
     3.8921   3.8925   4.0881   4.2101   4.2222   4.4586   4.4597   5.6671

     highest occupied level (ev):     6.2500

!    total energy              =    -126.80437717 Ry
     Harris-Foulkes estimate   =    -126.80437717 Ry
     estimated scf accuracy    <          4.9E-11 Ry

     The total energy is the sum of the following terms:

     one-electron contribution =      38.28205679 Ry
     hartree contribution      =       8.66149024 Ry
     xc contribution           =     -38.55021865 Ry
     ewald contribution        =    -135.19770556 Ry

     convergence has been achieved in   9 iterations

     Forces acting on atoms (cartesian axes, Ry/au):

     atom    1 type  1   force =    -0.00000007    0.00567066   -0.00000007
     atom    2 type  1   force =    -0.00083586   -0.00130930   -0.00083586
     atom    3 type  1   force =    -0.00000009    0.00567060   -0.00000009
     atom    4 type  1   force =    -0.00083582   -0.00130932   -0.00083582
     atom    5 type  1   force =    -0.00019917   -0.00034892   -0.00019924
     atom    6 type  1   force =     0.00000001   -0.00274812   -0.00000002
     atom    7 type  1   force =    -0.00019924   -0.00034892   -0.00019917
     atom    8 type  1   force =    -0.00000002   -0.00274812    0.00000001
     atom    9 type  1   force =     0.00019906   -0.00034905    0.00019904
     atom   10 type  1   force =     0.00000018    0.00010516    0.00000011
     atom   11 type  1   force =     0.00019904   -0.00034905    0.00019906
     atom   12 type  1   force =     0.00000011    0.00010516    0.00000018
     atom   13 type  1   force =     0.00000001    0.00028906    0.00000001
     atom   14 type  1   force =     0.00083593   -0.00130942    0.00083593
     atom   15 type  1   force =    -0.00000000    0.00028902   -0.00000000
     atom   16 type  1   force =     0.00083593   -0.00130945    0.00083593

     Total force =     0.009636     Total SCF correction =     0.000006


     Computing stress (Cartesian axis) and pressure

          total   stress  (Ry/bohr**3)                   (kbar)     P=        1.58
   0.00001079  -0.00000000  -0.00000659            1.59       -0.00       -0.97
  -0.00000000   0.00001065  -0.00000000           -0.00        1.57       -0.00
  -0.00000659  -0.00000000   0.00001079           -0.97       -0.00        1.59


     Writing output data file ./out/silicon.save/

     init_run     :      2.58s CPU      2.64s WALL (       1 calls)
     electrons    :     38.90s CPU     39.59s WALL (       1 calls)
     forces       :      0.35s CPU      0.35s WALL (       1 calls)
     stress       :      0.95s CPU      0.95s WALL (       1 calls)

     Called by init_run:
     wfcinit      :      2.39s CPU      2.42s WALL (       1 calls)
     potinit      :      0.04s CPU      0.05s WALL (       1 calls)
     hinit0       :      0.10s CPU      0.11s WALL (       1 calls)

     Called by electrons:
     c_bands      :     32.43s CPU     32.93s WALL (      10 calls)
     sum_band     :      5.94s CPU      6.09s WALL (      10 calls)
     v_of_rho     :      0.23s CPU      0.25s WALL (      10 calls)
     mix_rho      :      0.22s CPU      0.23s WALL (      10 calls)

     Called by c_bands:
     init_us_2    :      0.25s CPU      0.26s WALL (      69 calls)
     cegterg      :     30.80s CPU     31.29s WALL (      30 calls)

     Called by sum_band:

     Called by *egterg:
     h_psi        :     30.19s CPU     30.60s WALL (     112 calls)
     g_psi        :      0.08s CPU      0.09s WALL (      79 calls)
     cdiaghg      :      0.37s CPU      0.37s WALL (     106 calls)

     Called by h_psi:
     h_psi:calbec :      0.68s CPU      0.68s WALL (     112 calls)
     vloc_psi     :     28.72s CPU     29.08s WALL (     112 calls)
     add_vuspsi   :      0.66s CPU      0.67s WALL (     112 calls)

     General routines
     calbec       :      0.80s CPU      0.80s WALL (     127 calls)
     fft          :      0.26s CPU      0.27s WALL (      35 calls)
     ffts         :      0.07s CPU      0.07s WALL (      10 calls)
     fftw         :     29.97s CPU     30.41s WALL (    6512 calls)

     Parallel routines

     PWSCF        :     42.88s CPU     43.66s WALL


   This run was terminated on:  14:54:18   2Nov2020            

=------------------------------------------------------------------------------=
   JOB DONE.
=------------------------------------------------------------------------------=
