
     Program PWSCF v.6.5 starts on  2Nov2020 at 14:51:35 

     This program is part of the open-source Quantum ESPRESSO suite
     for quantum simulation of materials; please cite
         "P. Giannozzi et al., J. Phys.:Condens. Matter 21 395502 (2009);
         "P. Giannozzi et al., J. Phys.:Condens. Matter 29 465901 (2017);
          URL http://www.quantum-espresso.org", 
     in publications or presentations arising from this work. More details at
     http://www.quantum-espresso.org/quote

     Parallel version (MPI), running on     4 processors

     MPI processes distributed on     1 nodes
     K-points division:     npool     =       4
     Reading input from DISP.supercell_template.in.46

     Current dimensions of program PWSCF are:
     Max number of different atomic species (ntypx) = 10
     Max number of k-points (npk) =  40000
     Max angular momentum in pseudopotentials (lmaxx) =  3

     Subspace diagonalization in iterative solution of the eigenvalue problem:
     a serial algorithm will be used


     G-vector sticks info
     --------------------
     sticks:   dense  smooth     PW     G-vecs:    dense   smooth      PW
     Sum        1723    1723    475                47183    47183    6855



     bravais-lattice index     =            0
     lattice parameter (alat)  =      14.4250  a.u.
     unit-cell volume          =    2122.4160 (a.u.)^3
     number of atoms/cell      =           16
     number of atomic types    =            1
     number of electrons       =        64.00
     number of Kohn-Sham states=           32
     kinetic-energy cutoff     =      30.0000  Ry
     charge density cutoff     =     120.0000  Ry
     convergence threshold     =      1.0E-10
     mixing beta               =       0.7000
     number of iterations used =            8  plain     mixing
     Exchange-correlation= SLA PZ NOGX NOGC
                           (   1   1   0   0   0   0   0)

     celldm(1)=  14.424978  celldm(2)=   0.000000  celldm(3)=   0.000000
     celldm(4)=   0.000000  celldm(5)=   0.000000  celldm(6)=   0.000000

     crystal axes: (cart. coord. in units of alat)
               a(1) = (  -0.707107   0.000000   0.707107 )  
               a(2) = (   0.000000   0.707107   0.707107 )  
               a(3) = (  -0.707107   0.707107   0.000000 )  

     reciprocal axes: (cart. coord. in units 2 pi/alat)
               b(1) = ( -0.707107 -0.707107  0.707107 )  
               b(2) = (  0.707107  0.707107  0.707107 )  
               b(3) = ( -0.707107  0.707107 -0.707107 )  


     PseudoPot. # 1 for Si read from file:
     ../../pseudoPotentials/Si.pz-vbc.UPF
     MD5 check sum: 9f25e6ff280f3123e9b3a84715b2e9c9
     Pseudo is Norm-conserving, Zval =  4.0
     Generated by new atomic code, or converted to UPF format
     Using radial grid of  431 points,  2 beta functions with: 
                l(1) =   0
                l(2) =   1

     atomic species   valence    mass     pseudopotential
        Si             4.00    28.08600     Si( 1.00)

     No symmetry found



   Cartesian axes

     site n.     atom                  positions (alat units)
         1           Si  tau(   1) = (  -0.0883883  -0.0883883  -0.0896984  )
         2           Si  tau(   2) = (   0.0883883   0.0883883   0.0883883  )
         3           Si  tau(   3) = (  -0.4419417  -0.0896984   0.2651650  )
         4           Si  tau(   4) = (  -0.2651650   0.0883883   0.4419417  )
         5           Si  tau(   5) = (  -0.0883883   0.2651650   0.2651650  )
         6           Si  tau(   6) = (   0.0883883   0.4419417   0.4419417  )
         7           Si  tau(   7) = (  -0.4419417   0.2651650   0.6187184  )
         8           Si  tau(   8) = (  -0.2651650   0.4419417   0.7954951  )
         9           Si  tau(   9) = (  -0.4419417   0.2651650  -0.0883883  )
        10           Si  tau(  10) = (  -0.2651650   0.4419417   0.0883883  )
        11           Si  tau(  11) = (  -0.7954951   0.2651650   0.2651650  )
        12           Si  tau(  12) = (  -0.6187184   0.4419417   0.4419417  )
        13           Si  tau(  13) = (  -0.4419417   0.6187184   0.2651650  )
        14           Si  tau(  14) = (  -0.2651650   0.7954951   0.4419417  )
        15           Si  tau(  15) = (  -0.7954951   0.6187184   0.6187184  )
        16           Si  tau(  16) = (  -0.6187184   0.7954951   0.7954951  )

     number of k points=    14
                       cart. coord. in units 2pi/alat
        k(    1) = (   0.0000000   0.0000000   0.0000000), wk =   0.0740741
        k(    2) = (  -0.2357023   0.2357023  -0.2357023), wk =   0.1481481
        k(    3) = (   0.0000000   0.4714045   0.0000000), wk =   0.1481481
        k(    4) = (   0.4714045  -0.0000000   0.4714045), wk =   0.1481481
        k(    5) = (   0.2357023  -0.2357023  -0.2357023), wk =   0.1481481
        k(    6) = (   0.2357023   0.2357023   0.2357023), wk =   0.1481481
        k(    7) = (  -0.2357023  -0.2357023   0.2357023), wk =   0.1481481
        k(    8) = (   0.4714045   0.0000000   0.0000000), wk =   0.1481481
        k(    9) = (   0.0000000   0.0000000   0.4714045), wk =   0.1481481
        k(   10) = (  -0.4714045   0.0000000   0.4714045), wk =   0.1481481
        k(   11) = (  -0.0000000   0.4714045  -0.4714045), wk =   0.1481481
        k(   12) = (   0.0000000  -0.4714045  -0.4714045), wk =   0.1481481
        k(   13) = (  -0.4714045   0.4714045  -0.0000000), wk =   0.1481481
        k(   14) = (  -0.4714045  -0.4714045   0.0000000), wk =   0.1481481

     Dense  grid:    47183 G-vectors     FFT dimensions: (  54,  54,  54)

     Estimated max dynamical RAM per process >      74.52 MB

     Estimated total dynamical RAM >     298.07 MB

     Initial potential from superposition of free atoms

     starting charge   63.99206, renormalised to   64.00000
     Starting wfcs are   64 randomized atomic wfcs

     total cpu time spent up to now is        4.2 secs

     Self-consistent Calculation

     iteration #  1     ecut=    30.00 Ry     beta= 0.70
     Davidson diagonalization with overlap
     ethr =  1.00E-02,  avg # of iterations =  2.0

     Threshold (ethr) on eigenvalues was too large:
     Diagonalizing with lowered threshold

     Davidson diagonalization with overlap
     ethr =  8.05E-04,  avg # of iterations =  1.0

     total cpu time spent up to now is       16.0 secs

     total energy              =    -126.77600045 Ry
     Harris-Foulkes estimate   =    -126.94715666 Ry
     estimated scf accuracy    <       0.50308742 Ry

     iteration #  2     ecut=    30.00 Ry     beta= 0.70
     Davidson diagonalization with overlap
     ethr =  7.86E-04,  avg # of iterations =  1.0

     total cpu time spent up to now is       20.7 secs

     total energy              =    -126.80090082 Ry
     Harris-Foulkes estimate   =    -126.80334055 Ry
     estimated scf accuracy    <       0.01760487 Ry

     iteration #  3     ecut=    30.00 Ry     beta= 0.70
     Davidson diagonalization with overlap
     ethr =  2.75E-05,  avg # of iterations =  2.9

     total cpu time spent up to now is       26.5 secs

     total energy              =    -126.80422092 Ry
     Harris-Foulkes estimate   =    -126.80447069 Ry
     estimated scf accuracy    <       0.00058495 Ry

     iteration #  4     ecut=    30.00 Ry     beta= 0.70
     Davidson diagonalization with overlap
     ethr =  9.14E-07,  avg # of iterations =  2.6

     total cpu time spent up to now is       32.6 secs

     total energy              =    -126.80436851 Ry
     Harris-Foulkes estimate   =    -126.80441142 Ry
     estimated scf accuracy    <       0.00009669 Ry

     iteration #  5     ecut=    30.00 Ry     beta= 0.70
     Davidson diagonalization with overlap
     ethr =  1.51E-07,  avg # of iterations =  2.2

     total cpu time spent up to now is       38.3 secs

     total energy              =    -126.80438089 Ry
     Harris-Foulkes estimate   =    -126.80438786 Ry
     estimated scf accuracy    <       0.00001592 Ry

     iteration #  6     ecut=    30.00 Ry     beta= 0.70
     Davidson diagonalization with overlap
     ethr =  2.49E-08,  avg # of iterations =  2.1

     total cpu time spent up to now is       43.9 secs

     total energy              =    -126.80438360 Ry
     Harris-Foulkes estimate   =    -126.80438370 Ry
     estimated scf accuracy    <       0.00000036 Ry

     iteration #  7     ecut=    30.00 Ry     beta= 0.70
     Davidson diagonalization with overlap
     ethr =  5.63E-10,  avg # of iterations =  2.8

     total cpu time spent up to now is       50.2 secs

     total energy              =    -126.80438368 Ry
     Harris-Foulkes estimate   =    -126.80438370 Ry
     estimated scf accuracy    <       0.00000005 Ry

     iteration #  8     ecut=    30.00 Ry     beta= 0.70
     Davidson diagonalization with overlap
     ethr =  8.38E-11,  avg # of iterations =  2.1

     total cpu time spent up to now is       54.6 secs

     total energy              =    -126.80438368 Ry
     Harris-Foulkes estimate   =    -126.80438369 Ry
     estimated scf accuracy    <          3.7E-09 Ry

     iteration #  9     ecut=    30.00 Ry     beta= 0.70
     Davidson diagonalization with overlap
     ethr =  5.76E-12,  avg # of iterations =  3.3

     total cpu time spent up to now is       60.4 secs

     End of self-consistent calculation

          k = 0.0000 0.0000 0.0000 (  5961 PWs)   bands (ev):

    -5.8156  -3.4310  -3.4236  -3.4236  -3.4162  -1.6119  -1.6108  -1.6023
    -1.6023  -1.5938  -1.5928  -0.8314  -0.8240  -0.8240  -0.8165   3.3280
     3.3281   3.3318   3.3318   3.3355   3.3355   5.0092   5.0146   5.0199
     5.0221   5.0232   5.0254   5.0306   5.0360   6.2291   6.2377   6.2464

          k =-0.2357 0.2357-0.2357 (  5888 PWs)   bands (ev):

    -5.4485  -4.4123  -3.2738  -3.2685  -3.2633  -2.6966  -2.6919  -2.6870
    -0.4380  -0.4313  -0.4249  -0.3358  -0.3313  -0.3267   0.8538   2.5140
     2.5173   2.5198   3.4143   3.4186   3.4239   3.6330   3.6354   3.6399
     3.8479   4.4266   4.4300   4.4350   5.2172   5.2285   5.7737   5.7857

          k = 0.0000 0.4714 0.0000 (  5866 PWs)   bands (ev):

    -5.3238  -3.8802  -3.6740  -3.6671  -3.6658  -3.6590  -1.4795  -1.4719
    -1.4719  -1.4642   0.1778   0.1849   0.1863   0.1933   1.2437   2.4980
     2.5004   2.5021   2.5044   3.1302   3.1357   3.1369   3.1423   3.7720
     3.7768   4.2296   4.9108   4.9196   4.9211   4.9293   5.0179   5.0248

          k = 0.4714-0.0000 0.4714 (  5902 PWs)   bands (ev):

    -4.8502  -4.4981  -4.4895  -3.4864  -3.4797  -2.4842  -2.4718  -2.4642
    -0.6392  -0.6329  -0.5451   0.5885   0.5954   1.7108   1.7874   1.7946
     2.1385   2.1431   2.5254   2.5821   2.5860   3.4060   3.4103   3.7673
     3.8908   3.8997   4.0852   4.2147   4.2220   4.4509   4.4614   5.6622

          k = 0.2357-0.2357-0.2357 (  5888 PWs)   bands (ev):

    -5.4483  -4.4114  -3.2758  -3.2674  -3.2648  -2.6995  -2.6899  -2.6877
    -0.4345  -0.4297  -0.4231  -0.3368  -0.3279  -0.3238   0.8496   2.5099
     2.5150   2.5166   3.4089   3.4167   3.4190   3.6352   3.6385   3.6396
     3.8433   4.4302   4.4340   4.4352   5.2213   5.2278   5.7789   5.7859

          k = 0.2357 0.2357 0.2357 (  5888 PWs)   bands (ev):

    -5.4486  -4.4131  -3.2721  -3.2696  -3.2613  -2.6960  -2.6938  -2.6841
    -0.4399  -0.4328  -0.4284  -0.3386  -0.3350  -0.3257   0.8581   2.5175
     2.5192   2.5242   3.4189   3.4212   3.4290   3.6325   3.6336   3.6370
     3.8524   4.4258   4.4270   4.4309   5.2178   5.2245   5.7736   5.7804

          k =-0.2357-0.2357 0.2357 (  5888 PWs)   bands (ev):

    -5.4485  -4.4122  -3.2738  -3.2685  -3.2632  -2.6966  -2.6918  -2.6871
    -0.4380  -0.4312  -0.4247  -0.3359  -0.3311  -0.3269   0.8538   2.5143
     2.5168   2.5201   3.4141   3.4193   3.4235   3.6323   3.6368   3.6390
     3.8478   4.4261   4.4311   4.4344   5.2172   5.2285   5.7737   5.7858

          k = 0.4714 0.0000 0.0000 (  5866 PWs)   bands (ev):

    -5.3238  -3.8802  -3.6755  -3.6669  -3.6660  -3.6574  -1.4801  -1.4748
    -1.4690  -1.4636   0.1771   0.1830   0.1881   0.1940   1.2436   2.4966
     2.5000   2.5024   2.5057   3.1284   3.1349   3.1377   3.1442   3.7744
     3.7745   4.2296   4.9154   4.9201   4.9209   4.9255   5.0209   5.0209

          k = 0.0000 0.0000 0.4714 (  5866 PWs)   bands (ev):

    -5.3238  -3.8802  -3.6739  -3.6672  -3.6657  -3.6589  -1.4795  -1.4720
    -1.4719  -1.4642   0.1778   0.1849   0.1863   0.1933   1.2437   2.4980
     2.5004   2.5021   2.5044   3.1302   3.1357   3.1369   3.1424   3.7720
     3.7768   4.2296   4.9104   4.9197   4.9213   4.9294   5.0182   5.0245

          k =-0.4714 0.0000 0.4714 (  5902 PWs)   bands (ev):

    -4.8495  -4.4978  -4.4892  -3.4880  -3.4813  -2.4807  -2.4728  -2.4663
    -0.6344  -0.6281  -0.5531   0.5958   0.6026   1.7090   1.7854   1.7926
     2.1333   2.1379   2.5170   2.5814   2.5856   3.4087   3.4130   3.7689
     3.8845   3.8933   4.0907   4.2104   4.2175   4.4566   4.4674   5.6720

          k =-0.0000 0.4714-0.4714 (  5902 PWs)   bands (ev):

    -4.8499  -4.4937  -4.4936  -3.4839  -3.4838  -2.4830  -2.4715  -2.4654
    -0.6398  -0.6276  -0.5491   0.5955   0.5956   1.7099   1.7898   1.7902
     2.1376   2.1389   2.5209   2.5837   2.5841   3.4055   3.4133   3.7680
     3.8921   3.8923   4.0881   4.2160   4.2162   4.4591   4.4592   5.6672

          k = 0.0000-0.4714-0.4714 (  5902 PWs)   bands (ev):

    -4.8499  -4.4941  -4.4931  -3.4884  -3.4794  -2.4828  -2.4695  -2.4676
    -0.6337  -0.6336  -0.5491   0.5887   0.6024   1.7099   1.7850   1.7951
     2.1382   2.1383   2.5208   2.5820   2.5858   3.4094   3.4095   3.7679
     3.8892   3.8952   4.0881   4.2101   4.2222   4.4586   4.4596   5.6671

          k =-0.4714 0.4714-0.0000 (  5902 PWs)   bands (ev):

    -4.8495  -4.4979  -4.4892  -3.4880  -3.4813  -2.4817  -2.4719  -2.4662
    -0.6344  -0.6282  -0.5530   0.5958   0.6027   1.7091   1.7853   1.7926
     2.1332   2.1380   2.5170   2.5815   2.5856   3.4088   3.4130   3.7689
     3.8842   3.8934   4.0908   4.2104   4.2176   4.4567   4.4672   5.6720

          k =-0.4714-0.4714 0.0000 (  5902 PWs)   bands (ev):

    -4.8502  -4.4980  -4.4895  -3.4864  -3.4797  -2.4838  -2.4714  -2.4649
    -0.6391  -0.6329  -0.5452   0.5885   0.5954   1.7108   1.7875   1.7946
     2.1385   2.1431   2.5254   2.5821   2.5861   3.4060   3.4103   3.7673
     3.8910   3.8997   4.0851   4.2146   4.2219   4.4509   4.4615   5.6623

     highest occupied level (ev):     6.2464

!    total energy              =    -126.80438369 Ry
     Harris-Foulkes estimate   =    -126.80438369 Ry
     estimated scf accuracy    <          7.9E-11 Ry

     The total energy is the sum of the following terms:

     one-electron contribution =      38.28209264 Ry
     hartree contribution      =       8.66147203 Ry
     xc contribution           =     -38.55021868 Ry
     ewald contribution        =    -135.19772968 Ry

     convergence has been achieved in   9 iterations

     Forces acting on atoms (cartesian axes, Ry/au):

     atom    1 type  1   force =     0.00000055    0.00034369    0.00532521
     atom    2 type  1   force =    -0.00083550   -0.00083728   -0.00130766
     atom    3 type  1   force =     0.00019844    0.00532567   -0.00017484
     atom    4 type  1   force =    -0.00094372   -0.00130759   -0.00083676
     atom    5 type  1   force =    -0.00019914   -0.00037426   -0.00017371
     atom    6 type  1   force =     0.00000056   -0.00228684   -0.00046026
     atom    7 type  1   force =     0.00000066   -0.00017449    0.00014402
     atom    8 type  1   force =     0.00180318   -0.00048443   -0.00227393
     atom    9 type  1   force =    -0.00000095   -0.00017461    0.00054340
     atom   10 type  1   force =     0.00010792    0.00010666   -0.00000176
     atom   11 type  1   force =     0.00019865    0.00002512   -0.00017542
     atom   12 type  1   force =     0.00000007   -0.00000135    0.00010665
     atom   13 type  1   force =    -0.00019969   -0.00005371   -0.00017465
     atom   14 type  1   force =    -0.00096674    0.00096506   -0.00142775
     atom   15 type  1   force =     0.00000006    0.00034377   -0.00005452
     atom   16 type  1   force =     0.00083564   -0.00141541    0.00094200

     Total force =     0.009263     Total SCF correction =     0.000010


     Computing stress (Cartesian axis) and pressure

          total   stress  (Ry/bohr**3)                   (kbar)     P=        1.58
   0.00001079  -0.00000330  -0.00000329            1.59       -0.48       -0.48
  -0.00000330   0.00001072  -0.00000000           -0.48        1.58       -0.00
  -0.00000329  -0.00000000   0.00001072           -0.48       -0.00        1.58


     Writing output data file ./out/silicon.save/

     init_run     :      3.81s CPU      4.15s WALL (       1 calls)
     electrons    :     55.67s CPU     56.19s WALL (       1 calls)
     forces       :      0.39s CPU      0.39s WALL (       1 calls)
     stress       :      1.21s CPU      1.23s WALL (       1 calls)

     Called by init_run:
     wfcinit      :      3.59s CPU      3.90s WALL (       1 calls)
     potinit      :      0.06s CPU      0.07s WALL (       1 calls)
     hinit0       :      0.11s CPU      0.12s WALL (       1 calls)

     Called by electrons:
     c_bands      :     46.54s CPU     47.00s WALL (      10 calls)
     sum_band     :      8.52s CPU      8.56s WALL (      10 calls)
     v_of_rho     :      0.27s CPU      0.28s WALL (      10 calls)
     mix_rho      :      0.24s CPU      0.25s WALL (      10 calls)

     Called by c_bands:
     init_us_2    :      0.37s CPU      0.39s WALL (      92 calls)
     cegterg      :     42.95s CPU     43.39s WALL (      40 calls)

     Called by sum_band:

     Called by *egterg:
     h_psi        :     42.54s CPU     43.14s WALL (     138 calls)
     g_psi        :      0.11s CPU      0.12s WALL (      94 calls)
     cdiaghg      :      0.44s CPU      0.45s WALL (     130 calls)

     Called by h_psi:
     h_psi:calbec :      0.95s CPU      0.96s WALL (     138 calls)
     vloc_psi     :     40.52s CPU     41.05s WALL (     138 calls)
     add_vuspsi   :      0.93s CPU      0.95s WALL (     138 calls)

     General routines
     calbec       :      1.09s CPU      1.10s WALL (     158 calls)
     fft          :      0.30s CPU      0.30s WALL (      35 calls)
     ffts         :      0.09s CPU      0.09s WALL (      10 calls)
     fftw         :     42.48s CPU     42.96s WALL (    8578 calls)

     Parallel routines

     PWSCF        :   1m 1.19s CPU   1m 2.09s WALL


   This run was terminated on:  14:52:37   2Nov2020            

=------------------------------------------------------------------------------=
   JOB DONE.
=------------------------------------------------------------------------------=
