
     Program PWSCF v.6.5 starts on  2Nov2020 at 14:28:56 

     This program is part of the open-source Quantum ESPRESSO suite
     for quantum simulation of materials; please cite
         "P. Giannozzi et al., J. Phys.:Condens. Matter 21 395502 (2009);
         "P. Giannozzi et al., J. Phys.:Condens. Matter 29 465901 (2017);
          URL http://www.quantum-espresso.org", 
     in publications or presentations arising from this work. More details at
     http://www.quantum-espresso.org/quote

     Parallel version (MPI), running on     4 processors

     MPI processes distributed on     1 nodes
     K-points division:     npool     =       4
     Reading input from DISP.supercell_template.in.21

     Current dimensions of program PWSCF are:
     Max number of different atomic species (ntypx) = 10
     Max number of k-points (npk) =  40000
     Max angular momentum in pseudopotentials (lmaxx) =  3

     Subspace diagonalization in iterative solution of the eigenvalue problem:
     a serial algorithm will be used

     Message from routine setup:
     using ibrav=0 with symmetry is DISCOURAGED, use correct ibrav instead

     G-vector sticks info
     --------------------
     sticks:   dense  smooth     PW     G-vecs:    dense   smooth      PW
     Sum        1723    1723    475                47183    47183    6855



     bravais-lattice index     =            0
     lattice parameter (alat)  =      14.4250  a.u.
     unit-cell volume          =    2122.4160 (a.u.)^3
     number of atoms/cell      =           16
     number of atomic types    =            1
     number of electrons       =        64.00
     number of Kohn-Sham states=           32
     kinetic-energy cutoff     =      30.0000  Ry
     charge density cutoff     =     120.0000  Ry
     convergence threshold     =      1.0E-10
     mixing beta               =       0.7000
     number of iterations used =            8  plain     mixing
     Exchange-correlation= SLA PZ NOGX NOGC
                           (   1   1   0   0   0   0   0)

     celldm(1)=  14.424978  celldm(2)=   0.000000  celldm(3)=   0.000000
     celldm(4)=   0.000000  celldm(5)=   0.000000  celldm(6)=   0.000000

     crystal axes: (cart. coord. in units of alat)
               a(1) = (  -0.707107   0.000000   0.707107 )  
               a(2) = (   0.000000   0.707107   0.707107 )  
               a(3) = (  -0.707107   0.707107   0.000000 )  

     reciprocal axes: (cart. coord. in units 2 pi/alat)
               b(1) = ( -0.707107 -0.707107  0.707107 )  
               b(2) = (  0.707107  0.707107  0.707107 )  
               b(3) = ( -0.707107  0.707107 -0.707107 )  


     PseudoPot. # 1 for Si read from file:
     ../../pseudoPotentials/Si.pz-vbc.UPF
     MD5 check sum: 9f25e6ff280f3123e9b3a84715b2e9c9
     Pseudo is Norm-conserving, Zval =  4.0
     Generated by new atomic code, or converted to UPF format
     Using radial grid of  431 points,  2 beta functions with: 
                l(1) =   0
                l(2) =   1

     atomic species   valence    mass     pseudopotential
        Si             4.00    28.08600     Si( 1.00)

      2 Sym. Ops. (no inversion) found



   Cartesian axes

     site n.     atom                  positions (alat units)
         1           Si  tau(   1) = (  -0.0883883  -0.0870783  -0.0883883  )
         2           Si  tau(   2) = (   0.0883883   0.0896984   0.0883883  )
         3           Si  tau(   3) = (  -0.4419417  -0.0883883   0.2651650  )
         4           Si  tau(   4) = (  -0.2651650   0.0883883   0.4419417  )
         5           Si  tau(   5) = (  -0.0883883   0.2651650   0.2651650  )
         6           Si  tau(   6) = (   0.0883883   0.4419417   0.4419417  )
         7           Si  tau(   7) = (  -0.4419417   0.2651650   0.6187184  )
         8           Si  tau(   8) = (  -0.2651650   0.4419417   0.7954951  )
         9           Si  tau(   9) = (  -0.4419417   0.2651650  -0.0883883  )
        10           Si  tau(  10) = (  -0.2651650   0.4419417   0.0883883  )
        11           Si  tau(  11) = (  -0.7954951   0.2651650   0.2651650  )
        12           Si  tau(  12) = (  -0.6187184   0.4419417   0.4419417  )
        13           Si  tau(  13) = (  -0.4419417   0.6187184   0.2651650  )
        14           Si  tau(  14) = (  -0.2651650   0.7954951   0.4419417  )
        15           Si  tau(  15) = (  -0.7954951   0.6187184   0.6187184  )
        16           Si  tau(  16) = (  -0.6187184   0.7954951   0.7954951  )

     number of k points=    10
                       cart. coord. in units 2pi/alat
        k(    1) = (   0.0000000   0.0000000   0.0000000), wk =   0.0740741
        k(    2) = (  -0.2357023   0.2357023  -0.2357023), wk =   0.1481481
        k(    3) = (   0.0000000   0.4714045   0.0000000), wk =   0.1481481
        k(    4) = (   0.4714045  -0.0000000   0.4714045), wk =   0.1481481
        k(    5) = (   0.2357023   0.2357023   0.2357023), wk =   0.1481481
        k(    6) = (  -0.2357023  -0.2357023   0.2357023), wk =   0.2962963
        k(    7) = (   0.4714045   0.0000000   0.0000000), wk =   0.2962963
        k(    8) = (   0.4714045   0.0000000  -0.4714045), wk =   0.1481481
        k(    9) = (  -0.0000000   0.4714045  -0.4714045), wk =   0.2962963
        k(   10) = (   0.0000000  -0.4714045  -0.4714045), wk =   0.2962963

     Dense  grid:    47183 G-vectors     FFT dimensions: (  54,  54,  54)

     Estimated max dynamical RAM per process >      71.64 MB

     Estimated total dynamical RAM >     286.57 MB

     Initial potential from superposition of free atoms

     starting charge   63.99206, renormalised to   64.00000
     Starting wfcs are   64 randomized atomic wfcs

     total cpu time spent up to now is        2.7 secs

     Self-consistent Calculation

     iteration #  1     ecut=    30.00 Ry     beta= 0.70
     Davidson diagonalization with overlap
     ethr =  1.00E-02,  avg # of iterations =  2.0

     Threshold (ethr) on eigenvalues was too large:
     Diagonalizing with lowered threshold

     Davidson diagonalization with overlap
     ethr =  8.05E-04,  avg # of iterations =  1.0

     total cpu time spent up to now is       10.2 secs

     total energy              =    -126.77602415 Ry
     Harris-Foulkes estimate   =    -126.94717939 Ry
     estimated scf accuracy    <       0.50308244 Ry

     iteration #  2     ecut=    30.00 Ry     beta= 0.70
     Davidson diagonalization with overlap
     ethr =  7.86E-04,  avg # of iterations =  1.0

     total cpu time spent up to now is       13.3 secs

     total energy              =    -126.80092684 Ry
     Harris-Foulkes estimate   =    -126.80336779 Ry
     estimated scf accuracy    <       0.01760591 Ry

     iteration #  3     ecut=    30.00 Ry     beta= 0.70
     Davidson diagonalization with overlap
     ethr =  2.75E-05,  avg # of iterations =  2.9

     total cpu time spent up to now is       17.5 secs

     total energy              =    -126.80424584 Ry
     Harris-Foulkes estimate   =    -126.80449909 Ry
     estimated scf accuracy    <       0.00058911 Ry

     iteration #  4     ecut=    30.00 Ry     beta= 0.70
     Davidson diagonalization with overlap
     ethr =  9.20E-07,  avg # of iterations =  2.7

     total cpu time spent up to now is       22.2 secs

     total energy              =    -126.80439113 Ry
     Harris-Foulkes estimate   =    -126.80444285 Ry
     estimated scf accuracy    <       0.00011828 Ry

     iteration #  5     ecut=    30.00 Ry     beta= 0.70
     Davidson diagonalization with overlap
     ethr =  1.85E-07,  avg # of iterations =  2.3

     total cpu time spent up to now is       26.3 secs

     total energy              =    -126.80440674 Ry
     Harris-Foulkes estimate   =    -126.80441409 Ry
     estimated scf accuracy    <       0.00001666 Ry

     iteration #  6     ecut=    30.00 Ry     beta= 0.70
     Davidson diagonalization with overlap
     ethr =  2.60E-08,  avg # of iterations =  2.0

     total cpu time spent up to now is       30.3 secs

     total energy              =    -126.80440943 Ry
     Harris-Foulkes estimate   =    -126.80440952 Ry
     estimated scf accuracy    <       0.00000033 Ry

     iteration #  7     ecut=    30.00 Ry     beta= 0.70
     Davidson diagonalization with overlap
     ethr =  5.21E-10,  avg # of iterations =  3.1

     total cpu time spent up to now is       35.1 secs

     total energy              =    -126.80440952 Ry
     Harris-Foulkes estimate   =    -126.80440954 Ry
     estimated scf accuracy    <       0.00000007 Ry

     iteration #  8     ecut=    30.00 Ry     beta= 0.70
     Davidson diagonalization with overlap
     ethr =  1.15E-10,  avg # of iterations =  1.7

     total cpu time spent up to now is       38.2 secs

     total energy              =    -126.80440952 Ry
     Harris-Foulkes estimate   =    -126.80440952 Ry
     estimated scf accuracy    <          6.3E-09 Ry

     iteration #  9     ecut=    30.00 Ry     beta= 0.70
     Davidson diagonalization with overlap
     ethr =  9.88E-12,  avg # of iterations =  2.9

     total cpu time spent up to now is       42.4 secs

     total energy              =    -126.80440952 Ry
     Harris-Foulkes estimate   =    -126.80440952 Ry
     estimated scf accuracy    <          1.1E-10 Ry

     iteration # 10     ecut=    30.00 Ry     beta= 0.70
     Davidson diagonalization with overlap
     ethr =  1.79E-13,  avg # of iterations =  3.6

     total cpu time spent up to now is       47.3 secs

     End of self-consistent calculation

          k = 0.0000 0.0000 0.0000 (  5961 PWs)   bands (ev):

    -5.8156  -3.4304  -3.4236  -3.4236  -3.4168  -1.6116  -1.6076  -1.6063
    -1.5983  -1.5970  -1.5929  -0.8285  -0.8240  -0.8239  -0.8195   3.3288
     3.3288   3.3318   3.3318   3.3348   3.3348   5.0110   5.0173   5.0226
     5.0226   5.0226   5.0227   5.0279   5.0342   6.2376   6.2377   6.2378

          k =-0.2357 0.2357-0.2357 (  5888 PWs)   bands (ev):

    -5.4485  -4.4123  -3.2685  -3.2685  -3.2684  -2.6919  -2.6919  -2.6918
    -0.4316  -0.4312  -0.4310  -0.3318  -0.3314  -0.3309   0.8539   2.5150
     2.5171   2.5192   3.4166   3.4190   3.4215   3.6335   3.6361   3.6386
     3.8478   4.4270   4.4305   4.4338   5.2229   5.2230   5.7796   5.7797

          k = 0.0000 0.4714 0.0000 (  5866 PWs)   bands (ev):

    -5.3238  -3.8802  -3.6717  -3.6665  -3.6664  -3.6611  -1.4764  -1.4763
    -1.4674  -1.4674   0.1833   0.1856   0.1856   0.1878   1.2437   2.5010
     2.5010   2.5015   2.5015   3.1336   3.1363   3.1363   3.1390   3.7743
     3.7744   4.2296   4.9104   4.9203   4.9204   4.9295   5.0208   5.0218

          k = 0.4714-0.0000 0.4714 (  5902 PWs)   bands (ev):

    -4.8498  -4.4998  -4.4874  -3.4839  -3.4838  -2.4823  -2.4695  -2.4681
    -0.6337  -0.6336  -0.5492   0.5956   0.5957   1.7101   1.7857   1.7943
     2.1382   2.1382   2.5213   2.5837   2.5837   3.4096   3.4096   3.7683
     3.8921   3.8921   4.0878   4.2148   4.2173   4.4494   4.4686   5.6672

          k = 0.2357 0.2357 0.2357 (  5888 PWs)   bands (ev):

    -5.4485  -4.4122  -3.2725  -3.2685  -3.2645  -2.6979  -2.6919  -2.6857
    -0.4364  -0.4311  -0.4268  -0.3386  -0.3316  -0.3235   0.8538   2.5135
     2.5171   2.5206   3.4148   3.4190   3.4231   3.6359   3.6361   3.6362
     3.8478   4.4304   4.4306   4.4306   5.2227   5.2229   5.7796   5.7799

          k =-0.2357-0.2357 0.2357 (  5888 PWs)   bands (ev):

    -5.4485  -4.4122  -3.2752  -3.2685  -3.2618  -2.6984  -2.6919  -2.6853
    -0.4357  -0.4312  -0.4264  -0.3372  -0.3315  -0.3260   0.8538   2.5137
     2.5171   2.5204   3.4128   3.4190   3.4251   3.6335   3.6361   3.6387
     3.8479   4.4275   4.4305   4.4336   5.2228   5.2229   5.7796   5.7796

          k = 0.4714 0.0000 0.0000 (  5866 PWs)   bands (ev):

    -5.3237  -3.8801  -3.6746  -3.6704  -3.6626  -3.6583  -1.4764  -1.4764
    -1.4673  -1.4673   0.1780   0.1834   0.1877   0.1931   1.2437   2.4990
     2.4991   2.5033   2.5034   3.1293   3.1342   3.1384   3.1433   3.7744
     3.7745   4.2297   4.9157   4.9187   4.9222   4.9251   5.0208   5.0209

          k = 0.4714 0.0000-0.4714 (  5902 PWs)   bands (ev):

    -4.8498  -4.4996  -4.4877  -3.4888  -3.4789  -2.4819  -2.4751  -2.4630
    -0.6344  -0.6328  -0.5491   0.5953   0.5959   1.7100   1.7872   1.7927
     2.1335   2.1428   2.5216   2.5801   2.5872   3.4078   3.4114   3.7682
     3.8836   3.9003   4.0880   4.2123   4.2200   4.4544   4.4635   5.6671

          k =-0.0000 0.4714-0.4714 (  5902 PWs)   bands (ev):

    -4.8498  -4.4937  -4.4936  -3.4839  -3.4838  -2.4828  -2.4695  -2.4676
    -0.6337  -0.6336  -0.5491   0.5955   0.5956   1.7101   1.7898   1.7900
     2.1382   2.1384   2.5209   2.5837   2.5841   3.4094   3.4095   3.7681
     3.8921   3.8922   4.0881   4.2160   4.2162   4.4590   4.4591   5.6671

          k = 0.0000-0.4714-0.4714 (  5902 PWs)   bands (ev):

    -4.8498  -4.4936  -4.4936  -3.4883  -3.4794  -2.4825  -2.4694  -2.4679
    -0.6337  -0.6336  -0.5491   0.5887   0.6024   1.7099   1.7899   1.7901
     2.1382   2.1383   2.5208   2.5819   2.5859   3.4094   3.4096   3.7679
     3.8892   3.8952   4.0881   4.2160   4.2161   4.4591   4.4591   5.6671

     highest occupied level (ev):     6.2378

!    total energy              =    -126.80440952 Ry
     Harris-Foulkes estimate   =    -126.80440952 Ry
     estimated scf accuracy    <          4.4E-11 Ry

     The total energy is the sum of the following terms:

     one-electron contribution =      38.28207267 Ry
     hartree contribution      =       8.66148739 Ry
     xc contribution           =     -38.55021735 Ry
     ewald contribution        =    -135.19775223 Ry

     convergence has been achieved in  10 iterations

     Forces acting on atoms (cartesian axes, Ry/au):

     atom    1 type  1   force =     0.00091279   -0.00395294    0.00091279
     atom    2 type  1   force =     0.00088988   -0.00396499    0.00088988
     atom    3 type  1   force =    -0.00005390   -0.00039600   -0.00005390
     atom    4 type  1   force =    -0.00005392   -0.00039643   -0.00005392
     atom    5 type  1   force =    -0.00091294    0.00154837    0.00111249
     atom    6 type  1   force =    -0.00088958    0.00153625    0.00108979
     atom    7 type  1   force =     0.00111249    0.00154837   -0.00091294
     atom    8 type  1   force =     0.00108979    0.00153625   -0.00088958
     atom    9 type  1   force =    -0.00014587    0.00012206   -0.00005465
     atom   10 type  1   force =    -0.00014590    0.00012231   -0.00005330
     atom   11 type  1   force =    -0.00005465    0.00012206   -0.00014587
     atom   12 type  1   force =    -0.00005330    0.00012231   -0.00014590
     atom   13 type  1   force =    -0.00088984    0.00101815   -0.00088984
     atom   14 type  1   force =    -0.00091290    0.00103006   -0.00091290
     atom   15 type  1   force =     0.00005382    0.00000218    0.00005382
     atom   16 type  1   force =     0.00005402    0.00000199    0.00005402

     Total force =     0.007619     Total SCF correction =     0.000008


     Computing stress (Cartesian axis) and pressure

          total   stress  (Ry/bohr**3)                   (kbar)     P=        1.58
   0.00001076  -0.00000001  -0.00000003            1.58       -0.00       -0.00
  -0.00000001   0.00001066  -0.00000001           -0.00        1.57       -0.00
  -0.00000003  -0.00000001   0.00001076           -0.00       -0.00        1.58


     Writing output data file ./out/silicon.save/

     init_run     :      2.47s CPU      2.61s WALL (       1 calls)
     electrons    :     44.18s CPU     44.65s WALL (       1 calls)
     forces       :      0.33s CPU      0.33s WALL (       1 calls)
     stress       :      0.95s CPU      0.95s WALL (       1 calls)

     Called by init_run:
     wfcinit      :      2.25s CPU      2.37s WALL (       1 calls)
     potinit      :      0.05s CPU      0.06s WALL (       1 calls)
     hinit0       :      0.11s CPU      0.11s WALL (       1 calls)

     Called by electrons:
     c_bands      :     36.76s CPU     37.19s WALL (      11 calls)
     sum_band     :      6.74s CPU      6.77s WALL (      11 calls)
     v_of_rho     :      0.29s CPU      0.29s WALL (      11 calls)
     mix_rho      :      0.28s CPU      0.28s WALL (      11 calls)

     Called by c_bands:
     init_us_2    :      0.28s CPU      0.28s WALL (      75 calls)
     cegterg      :     34.51s CPU     34.93s WALL (      33 calls)

     Called by sum_band:

     Called by *egterg:
     h_psi        :     33.56s CPU     34.00s WALL (     118 calls)
     g_psi        :      0.10s CPU      0.10s WALL (      82 calls)
     cdiaghg      :      0.38s CPU      0.39s WALL (     112 calls)

     Called by h_psi:
     h_psi:calbec :      0.73s CPU      0.74s WALL (     118 calls)
     vloc_psi     :     32.04s CPU     32.42s WALL (     118 calls)
     add_vuspsi   :      0.69s CPU      0.70s WALL (     118 calls)

     General routines
     calbec       :      0.84s CPU      0.84s WALL (     133 calls)
     fft          :      0.30s CPU      0.30s WALL (      38 calls)
     ffts         :      0.09s CPU      0.09s WALL (      11 calls)
     fftw         :     33.48s CPU     33.84s WALL (    7188 calls)

     Parallel routines

     PWSCF        :     48.04s CPU     48.66s WALL


   This run was terminated on:  14:29:44   2Nov2020            

=------------------------------------------------------------------------------=
   JOB DONE.
=------------------------------------------------------------------------------=
