
     Program PWSCF v.6.5 starts on  2Nov2020 at 14:25:12 

     This program is part of the open-source Quantum ESPRESSO suite
     for quantum simulation of materials; please cite
         "P. Giannozzi et al., J. Phys.:Condens. Matter 21 395502 (2009);
         "P. Giannozzi et al., J. Phys.:Condens. Matter 29 465901 (2017);
          URL http://www.quantum-espresso.org", 
     in publications or presentations arising from this work. More details at
     http://www.quantum-espresso.org/quote

     Parallel version (MPI), running on     4 processors

     MPI processes distributed on     1 nodes
     K-points division:     npool     =       4
     Reading input from DISP.supercell_template.in.16

     Current dimensions of program PWSCF are:
     Max number of different atomic species (ntypx) = 10
     Max number of k-points (npk) =  40000
     Max angular momentum in pseudopotentials (lmaxx) =  3

     Subspace diagonalization in iterative solution of the eigenvalue problem:
     a serial algorithm will be used

     Message from routine setup:
     using ibrav=0 with symmetry is DISCOURAGED, use correct ibrav instead

     G-vector sticks info
     --------------------
     sticks:   dense  smooth     PW     G-vecs:    dense   smooth      PW
     Sum        1723    1723    475                47183    47183    6855



     bravais-lattice index     =            0
     lattice parameter (alat)  =      14.4250  a.u.
     unit-cell volume          =    2122.4160 (a.u.)^3
     number of atoms/cell      =           16
     number of atomic types    =            1
     number of electrons       =        64.00
     number of Kohn-Sham states=           32
     kinetic-energy cutoff     =      30.0000  Ry
     charge density cutoff     =     120.0000  Ry
     convergence threshold     =      1.0E-10
     mixing beta               =       0.7000
     number of iterations used =            8  plain     mixing
     Exchange-correlation= SLA PZ NOGX NOGC
                           (   1   1   0   0   0   0   0)

     celldm(1)=  14.424978  celldm(2)=   0.000000  celldm(3)=   0.000000
     celldm(4)=   0.000000  celldm(5)=   0.000000  celldm(6)=   0.000000

     crystal axes: (cart. coord. in units of alat)
               a(1) = (  -0.707107   0.000000   0.707107 )  
               a(2) = (   0.000000   0.707107   0.707107 )  
               a(3) = (  -0.707107   0.707107   0.000000 )  

     reciprocal axes: (cart. coord. in units 2 pi/alat)
               b(1) = ( -0.707107 -0.707107  0.707107 )  
               b(2) = (  0.707107  0.707107  0.707107 )  
               b(3) = ( -0.707107  0.707107 -0.707107 )  


     PseudoPot. # 1 for Si read from file:
     ../../pseudoPotentials/Si.pz-vbc.UPF
     MD5 check sum: 9f25e6ff280f3123e9b3a84715b2e9c9
     Pseudo is Norm-conserving, Zval =  4.0
     Generated by new atomic code, or converted to UPF format
     Using radial grid of  431 points,  2 beta functions with: 
                l(1) =   0
                l(2) =   1

     atomic species   valence    mass     pseudopotential
        Si             4.00    28.08600     Si( 1.00)

      4 Sym. Ops. (no inversion) found ( 2 have fractional translation)



   Cartesian axes

     site n.     atom                  positions (alat units)
         1           Si  tau(   1) = (  -0.0883883  -0.0896984  -0.0883883  )
         2           Si  tau(   2) = (   0.0883883   0.0883883   0.0883883  )
         3           Si  tau(   3) = (  -0.4419417  -0.0870783   0.2651650  )
         4           Si  tau(   4) = (  -0.2651650   0.0883883   0.4419417  )
         5           Si  tau(   5) = (  -0.0883883   0.2651650   0.2651650  )
         6           Si  tau(   6) = (   0.0883883   0.4419417   0.4419417  )
         7           Si  tau(   7) = (  -0.4419417   0.2651650   0.6187184  )
         8           Si  tau(   8) = (  -0.2651650   0.4419417   0.7954951  )
         9           Si  tau(   9) = (  -0.4419417   0.2651650  -0.0883883  )
        10           Si  tau(  10) = (  -0.2651650   0.4419417   0.0883883  )
        11           Si  tau(  11) = (  -0.7954951   0.2651650   0.2651650  )
        12           Si  tau(  12) = (  -0.6187184   0.4419417   0.4419417  )
        13           Si  tau(  13) = (  -0.4419417   0.6187184   0.2651650  )
        14           Si  tau(  14) = (  -0.2651650   0.7954951   0.4419417  )
        15           Si  tau(  15) = (  -0.7954951   0.6187184   0.6187184  )
        16           Si  tau(  16) = (  -0.6187184   0.7954951   0.7954951  )

     number of k points=     8
                       cart. coord. in units 2pi/alat
        k(    1) = (   0.0000000   0.0000000   0.0000000), wk =   0.0740741
        k(    2) = (  -0.2357023   0.2357023  -0.2357023), wk =   0.2962963
        k(    3) = (   0.0000000   0.4714045   0.0000000), wk =   0.1481481
        k(    4) = (   0.4714045  -0.0000000   0.4714045), wk =   0.1481481
        k(    5) = (  -0.2357023   0.2357023   0.2357023), wk =   0.2962963
        k(    6) = (   0.4714045   0.0000000   0.0000000), wk =   0.2962963
        k(    7) = (  -0.0000000   0.4714045  -0.4714045), wk =   0.5925926
        k(    8) = (   0.4714045  -0.0000000  -0.4714045), wk =   0.1481481

     Dense  grid:    47183 G-vectors     FFT dimensions: (  54,  60,  60)

     Estimated max dynamical RAM per process >      71.30 MB

     Estimated total dynamical RAM >     285.21 MB

     Initial potential from superposition of free atoms

     starting charge   63.99206, renormalised to   64.00000
     Starting wfcs are   64 randomized atomic wfcs

     total cpu time spent up to now is        2.3 secs

     Self-consistent Calculation

     iteration #  1     ecut=    30.00 Ry     beta= 0.70
     Davidson diagonalization with overlap
     ethr =  1.00E-02,  avg # of iterations =  2.0

     Threshold (ethr) on eigenvalues was too large:
     Diagonalizing with lowered threshold

     Davidson diagonalization with overlap
     ethr =  8.05E-04,  avg # of iterations =  1.0

     total cpu time spent up to now is        9.3 secs

     total energy              =    -126.77599941 Ry
     Harris-Foulkes estimate   =    -126.94716238 Ry
     estimated scf accuracy    <       0.50310577 Ry

     iteration #  2     ecut=    30.00 Ry     beta= 0.70
     Davidson diagonalization with overlap
     ethr =  7.86E-04,  avg # of iterations =  1.0

     total cpu time spent up to now is       12.2 secs

     total energy              =    -126.80090428 Ry
     Harris-Foulkes estimate   =    -126.80334318 Ry
     estimated scf accuracy    <       0.01760368 Ry

     iteration #  3     ecut=    30.00 Ry     beta= 0.70
     Davidson diagonalization with overlap
     ethr =  2.75E-05,  avg # of iterations =  2.9

     total cpu time spent up to now is       15.7 secs

     total energy              =    -126.80422612 Ry
     Harris-Foulkes estimate   =    -126.80447491 Ry
     estimated scf accuracy    <       0.00058363 Ry

     iteration #  4     ecut=    30.00 Ry     beta= 0.70
     Davidson diagonalization with overlap
     ethr =  9.12E-07,  avg # of iterations =  2.6

     total cpu time spent up to now is       19.7 secs

     total energy              =    -126.80437556 Ry
     Harris-Foulkes estimate   =    -126.80441717 Ry
     estimated scf accuracy    <       0.00009351 Ry

     iteration #  5     ecut=    30.00 Ry     beta= 0.70
     Davidson diagonalization with overlap
     ethr =  1.46E-07,  avg # of iterations =  2.4

     total cpu time spent up to now is       23.4 secs

     total energy              =    -126.80438750 Ry
     Harris-Foulkes estimate   =    -126.80439442 Ry
     estimated scf accuracy    <       0.00001591 Ry

     iteration #  6     ecut=    30.00 Ry     beta= 0.70
     Davidson diagonalization with overlap
     ethr =  2.49E-08,  avg # of iterations =  2.2

     total cpu time spent up to now is       27.3 secs

     total energy              =    -126.80439023 Ry
     Harris-Foulkes estimate   =    -126.80439033 Ry
     estimated scf accuracy    <       0.00000036 Ry

     iteration #  7     ecut=    30.00 Ry     beta= 0.70
     Davidson diagonalization with overlap
     ethr =  5.70E-10,  avg # of iterations =  3.4

     total cpu time spent up to now is       31.3 secs

     total energy              =    -126.80439032 Ry
     Harris-Foulkes estimate   =    -126.80439033 Ry
     estimated scf accuracy    <       0.00000005 Ry

     iteration #  8     ecut=    30.00 Ry     beta= 0.70
     Davidson diagonalization with overlap
     ethr =  7.20E-11,  avg # of iterations =  2.1

     total cpu time spent up to now is       34.3 secs

     total energy              =    -126.80439032 Ry
     Harris-Foulkes estimate   =    -126.80439032 Ry
     estimated scf accuracy    <          4.3E-09 Ry

     iteration #  9     ecut=    30.00 Ry     beta= 0.70
     Davidson diagonalization with overlap
     ethr =  6.70E-12,  avg # of iterations =  3.0

     total cpu time spent up to now is       37.9 secs

     End of self-consistent calculation

          k = 0.0000 0.0000 0.0000 (  5961 PWs)   bands (ev):

    -5.8156  -3.4236  -3.4236  -3.4236  -3.4235  -1.6164  -1.6023  -1.6023
    -1.6023  -1.6022  -1.5883  -0.8241  -0.8240  -0.8240  -0.8238   3.3285
     3.3285   3.3318   3.3318   3.3350   3.3350   5.0152   5.0153   5.0226
     5.0226   5.0226   5.0227   5.0299   5.0299   6.2376   6.2377   6.2379

          k =-0.2357 0.2357-0.2357 (  5888 PWs)   bands (ev):

    -5.4485  -4.4122  -3.2725  -3.2684  -3.2645  -2.6979  -2.6919  -2.6858
    -0.4359  -0.4310  -0.4264  -0.3391  -0.3317  -0.3239   0.8538   2.5129
     2.5171   2.5211   3.4142   3.4189   3.4238   3.6336   3.6361   3.6386
     3.8479   4.4271   4.4306   4.4339   5.2229   5.2230   5.7796   5.7797

          k = 0.0000 0.4714 0.0000 (  5866 PWs)   bands (ev):

    -5.3237  -3.8803  -3.6665  -3.6665  -3.6665  -3.6662  -1.4720  -1.4719
    -1.4719  -1.4719   0.1855   0.1856   0.1856   0.1857   1.2437   2.5012
     2.5012   2.5012   2.5013   3.1362   3.1363   3.1363   3.1364   3.7743
     3.7745   4.2297   4.9185   4.9204   4.9204   4.9204   5.0207   5.0228

          k = 0.4714-0.0000 0.4714 (  5902 PWs)   bands (ev):

    -4.8498  -4.4938  -4.4936  -3.4838  -3.4838  -2.4824  -2.4695  -2.4682
    -0.6337  -0.6336  -0.5491   0.5955   0.5956   1.7100   1.7899   1.7900
     2.1379   2.1382   2.5216   2.5836   2.5838   3.4095   3.4096   3.7683
     3.8916   3.8921   4.0881   4.2160   4.2166   4.4590   4.4590   5.6670

          k =-0.2357 0.2357 0.2357 (  5888 PWs)   bands (ev):

    -5.4485  -4.4122  -3.2725  -3.2685  -3.2645  -2.6979  -2.6919  -2.6858
    -0.4366  -0.4314  -0.4270  -0.3384  -0.3313  -0.3233   0.8538   2.5130
     2.5171   2.5212   3.4142   3.4190   3.4238   3.6335   3.6361   3.6385
     3.8478   4.4271   4.4305   4.4339   5.2226   5.2229   5.7796   5.7799

          k = 0.4714 0.0000 0.0000 (  5866 PWs)   bands (ev):

    -5.3237  -3.8801  -3.6706  -3.6705  -3.6624  -3.6623  -1.4803  -1.4755
    -1.4683  -1.4635   0.1801   0.1802   0.1909   0.1910   1.2437   2.4969
     2.5010   2.5014   2.5054   3.1329   3.1330   3.1396   3.1396   3.7744
     3.7745   4.2296   4.9175   4.9176   4.9233   4.9234   5.0208   5.0210

          k =-0.0000 0.4714-0.4714 (  5902 PWs)   bands (ev):

    -4.8498  -4.4937  -4.4936  -3.4883  -3.4794  -2.4829  -2.4694  -2.4676
    -0.6337  -0.6336  -0.5491   0.5887   0.6025   1.7099   1.7899   1.7902
     2.1381   2.1382   2.5213   2.5817   2.5856   3.4094   3.4095   3.7681
     3.8891   3.8951   4.0881   4.2160   4.2162   4.4591   4.4591   5.6671

          k = 0.4714-0.0000-0.4714 (  5902 PWs)   bands (ev):

    -4.8499  -4.4936  -4.4935  -3.4839  -3.4839  -2.4810  -2.4695  -2.4695
    -0.6338  -0.6336  -0.5492   0.5956   0.5957   1.7100   1.7900   1.7901
     2.1382   2.1382   2.5212   2.5837   2.5838   3.4095   3.4096   3.7682
     3.8921   3.8921   4.0876   4.2160   4.2161   4.4589   4.4592   5.6672

     highest occupied level (ev):     6.2379

!    total energy              =    -126.80439032 Ry
     Harris-Foulkes estimate   =    -126.80439032 Ry
     estimated scf accuracy    <          9.8E-11 Ry

     The total energy is the sum of the following terms:

     one-electron contribution =      38.28212714 Ry
     hartree contribution      =       8.66145643 Ry
     xc contribution           =     -38.55022010 Ry
     ewald contribution        =    -135.19775379 Ry

     convergence has been achieved in   9 iterations

     Forces acting on atoms (cartesian axes, Ry/au):

     atom    1 type  1   force =     0.00000000    0.00498247    0.00000000
     atom    2 type  1   force =    -0.00094354   -0.00141451   -0.00094354
     atom    3 type  1   force =     0.00000000   -0.00498296    0.00000000
     atom    4 type  1   force =     0.00096686    0.00142601    0.00096686
     atom    5 type  1   force =     0.00020053    0.00000005   -0.00019871
     atom    6 type  1   force =     0.00180250   -0.00001213   -0.00180250
     atom    7 type  1   force =    -0.00019871    0.00000005    0.00020053
     atom    8 type  1   force =    -0.00180250   -0.00001213    0.00180250
     atom    9 type  1   force =     0.00019871    0.00000005   -0.00020053
     atom   10 type  1   force =    -0.00010791    0.00000046    0.00010791
     atom   11 type  1   force =    -0.00020053    0.00000005    0.00019871
     atom   12 type  1   force =     0.00010791    0.00000046   -0.00010791
     atom   13 type  1   force =     0.00000000    0.00039856    0.00000000
     atom   14 type  1   force =     0.00094354   -0.00141451    0.00094354
     atom   15 type  1   force =     0.00000000   -0.00039795    0.00000000
     atom   16 type  1   force =    -0.00096686    0.00142601   -0.00096686

     Total force =     0.008871     Total SCF correction =     0.000013


     Computing stress (Cartesian axis) and pressure

          total   stress  (Ry/bohr**3)                   (kbar)     P=        1.58
   0.00001078   0.00000000   0.00000000            1.59        0.00        0.00
   0.00000000   0.00001066  -0.00000000            0.00        1.57       -0.00
   0.00000000   0.00000000   0.00001078            0.00        0.00        1.59


     Writing output data file ./out/silicon.save/

     init_run     :      2.06s CPU      2.10s WALL (       1 calls)
     electrons    :     35.04s CPU     35.61s WALL (       1 calls)
     forces       :      0.29s CPU      0.29s WALL (       1 calls)
     stress       :      0.82s CPU      0.82s WALL (       1 calls)

     Called by init_run:
     wfcinit      :      1.91s CPU      1.93s WALL (       1 calls)
     potinit      :      0.05s CPU      0.06s WALL (       1 calls)
     hinit0       :      0.07s CPU      0.08s WALL (       1 calls)

     Called by electrons:
     c_bands      :     28.13s CPU     28.60s WALL (      10 calls)
     sum_band     :      6.19s CPU      6.26s WALL (      10 calls)
     v_of_rho     :      0.31s CPU      0.33s WALL (      10 calls)
     mix_rho      :      0.27s CPU      0.28s WALL (      10 calls)

     Called by c_bands:
     init_us_2    :      0.18s CPU      0.18s WALL (      46 calls)
     cegterg      :     26.05s CPU     26.48s WALL (      20 calls)

     Called by sum_band:

     Called by *egterg:
     h_psi        :     25.87s CPU     26.23s WALL (      78 calls)
     g_psi        :      0.06s CPU      0.06s WALL (      56 calls)
     cdiaghg      :      0.25s CPU      0.25s WALL (      74 calls)

     Called by h_psi:
     h_psi:calbec :      0.48s CPU      0.48s WALL (      78 calls)
     vloc_psi     :     24.85s CPU     25.16s WALL (      78 calls)
     add_vuspsi   :      0.47s CPU      0.47s WALL (      78 calls)

     General routines
     calbec       :      0.54s CPU      0.54s WALL (      88 calls)
     fft          :      0.36s CPU      0.36s WALL (      35 calls)
     ffts         :      0.07s CPU      0.07s WALL (      10 calls)
     fftw         :     26.03s CPU     26.34s WALL (    4330 calls)

     Parallel routines

     PWSCF        :     38.45s CPU     39.09s WALL


   This run was terminated on:  14:25:51   2Nov2020            

=------------------------------------------------------------------------------=
   JOB DONE.
=------------------------------------------------------------------------------=
