
     Program PWSCF v.6.5 starts on  2Nov2020 at 14:22:23 

     This program is part of the open-source Quantum ESPRESSO suite
     for quantum simulation of materials; please cite
         "P. Giannozzi et al., J. Phys.:Condens. Matter 21 395502 (2009);
         "P. Giannozzi et al., J. Phys.:Condens. Matter 29 465901 (2017);
          URL http://www.quantum-espresso.org", 
     in publications or presentations arising from this work. More details at
     http://www.quantum-espresso.org/quote

     Parallel version (MPI), running on     4 processors

     MPI processes distributed on     1 nodes
     K-points division:     npool     =       4
     Reading input from DISP.supercell_template.in.13

     Current dimensions of program PWSCF are:
     Max number of different atomic species (ntypx) = 10
     Max number of k-points (npk) =  40000
     Max angular momentum in pseudopotentials (lmaxx) =  3

     Subspace diagonalization in iterative solution of the eigenvalue problem:
     a serial algorithm will be used

     Message from routine setup:
     using ibrav=0 with symmetry is DISCOURAGED, use correct ibrav instead

     G-vector sticks info
     --------------------
     sticks:   dense  smooth     PW     G-vecs:    dense   smooth      PW
     Sum        1723    1723    475                47183    47183    6855



     bravais-lattice index     =            0
     lattice parameter (alat)  =      14.4250  a.u.
     unit-cell volume          =    2122.4160 (a.u.)^3
     number of atoms/cell      =           16
     number of atomic types    =            1
     number of electrons       =        64.00
     number of Kohn-Sham states=           32
     kinetic-energy cutoff     =      30.0000  Ry
     charge density cutoff     =     120.0000  Ry
     convergence threshold     =      1.0E-10
     mixing beta               =       0.7000
     number of iterations used =            8  plain     mixing
     Exchange-correlation= SLA PZ NOGX NOGC
                           (   1   1   0   0   0   0   0)

     celldm(1)=  14.424978  celldm(2)=   0.000000  celldm(3)=   0.000000
     celldm(4)=   0.000000  celldm(5)=   0.000000  celldm(6)=   0.000000

     crystal axes: (cart. coord. in units of alat)
               a(1) = (  -0.707107   0.000000   0.707107 )  
               a(2) = (   0.000000   0.707107   0.707107 )  
               a(3) = (  -0.707107   0.707107   0.000000 )  

     reciprocal axes: (cart. coord. in units 2 pi/alat)
               b(1) = ( -0.707107 -0.707107  0.707107 )  
               b(2) = (  0.707107  0.707107  0.707107 )  
               b(3) = ( -0.707107  0.707107 -0.707107 )  


     PseudoPot. # 1 for Si read from file:
     ../../pseudoPotentials/Si.pz-vbc.UPF
     MD5 check sum: 9f25e6ff280f3123e9b3a84715b2e9c9
     Pseudo is Norm-conserving, Zval =  4.0
     Generated by new atomic code, or converted to UPF format
     Using radial grid of  431 points,  2 beta functions with: 
                l(1) =   0
                l(2) =   1

     atomic species   valence    mass     pseudopotential
        Si             4.00    28.08600     Si( 1.00)

      2 Sym. Ops. (no inversion) found ( 1 have fractional translation)



   Cartesian axes

     site n.     atom                  positions (alat units)
         1           Si  tau(   1) = (  -0.0883883  -0.0883883  -0.0896984  )
         2           Si  tau(   2) = (   0.0883883   0.0883883   0.0883883  )
         3           Si  tau(   3) = (  -0.4406317  -0.0883883   0.2651650  )
         4           Si  tau(   4) = (  -0.2651650   0.0883883   0.4419417  )
         5           Si  tau(   5) = (  -0.0883883   0.2651650   0.2651650  )
         6           Si  tau(   6) = (   0.0883883   0.4419417   0.4419417  )
         7           Si  tau(   7) = (  -0.4419417   0.2651650   0.6187184  )
         8           Si  tau(   8) = (  -0.2651650   0.4419417   0.7954951  )
         9           Si  tau(   9) = (  -0.4419417   0.2651650  -0.0883883  )
        10           Si  tau(  10) = (  -0.2651650   0.4419417   0.0883883  )
        11           Si  tau(  11) = (  -0.7954951   0.2651650   0.2651650  )
        12           Si  tau(  12) = (  -0.6187184   0.4419417   0.4419417  )
        13           Si  tau(  13) = (  -0.4419417   0.6187184   0.2651650  )
        14           Si  tau(  14) = (  -0.2651650   0.7954951   0.4419417  )
        15           Si  tau(  15) = (  -0.7954951   0.6187184   0.6187184  )
        16           Si  tau(  16) = (  -0.6187184   0.7954951   0.7954951  )

     number of k points=    10
                       cart. coord. in units 2pi/alat
        k(    1) = (   0.0000000   0.0000000   0.0000000), wk =   0.0740741
        k(    2) = (  -0.2357023   0.2357023  -0.2357023), wk =   0.2962963
        k(    3) = (   0.0000000   0.4714045   0.0000000), wk =   0.1481481
        k(    4) = (   0.4714045  -0.0000000   0.4714045), wk =   0.1481481
        k(    5) = (  -0.2357023  -0.2357023   0.2357023), wk =   0.1481481
        k(    6) = (  -0.2357023   0.2357023   0.2357023), wk =   0.1481481
        k(    7) = (   0.4714045   0.0000000   0.0000000), wk =   0.2962963
        k(    8) = (   0.4714045   0.0000000  -0.4714045), wk =   0.1481481
        k(    9) = (  -0.0000000   0.4714045  -0.4714045), wk =   0.2962963
        k(   10) = (   0.0000000  -0.4714045  -0.4714045), wk =   0.2962963

     Dense  grid:    47183 G-vectors     FFT dimensions: (  54,  60,  60)

     Estimated max dynamical RAM per process >      74.18 MB

     Estimated total dynamical RAM >     296.71 MB

     Initial potential from superposition of free atoms

     starting charge   63.99206, renormalised to   64.00000
     Starting wfcs are   64 randomized atomic wfcs

     total cpu time spent up to now is        1.8 secs

     Self-consistent Calculation

     iteration #  1     ecut=    30.00 Ry     beta= 0.70
     Davidson diagonalization with overlap
     ethr =  1.00E-02,  avg # of iterations =  2.0

     Threshold (ethr) on eigenvalues was too large:
     Diagonalizing with lowered threshold

     Davidson diagonalization with overlap
     ethr =  8.05E-04,  avg # of iterations =  1.0

     total cpu time spent up to now is        7.1 secs

     total energy              =    -126.77600424 Ry
     Harris-Foulkes estimate   =    -126.94715636 Ry
     estimated scf accuracy    <       0.50308218 Ry

     iteration #  2     ecut=    30.00 Ry     beta= 0.70
     Davidson diagonalization with overlap
     ethr =  7.86E-04,  avg # of iterations =  1.0

     total cpu time spent up to now is        9.3 secs

     total energy              =    -126.80090472 Ry
     Harris-Foulkes estimate   =    -126.80334141 Ry
     estimated scf accuracy    <       0.01760163 Ry

     iteration #  3     ecut=    30.00 Ry     beta= 0.70
     Davidson diagonalization with overlap
     ethr =  2.75E-05,  avg # of iterations =  2.9

     total cpu time spent up to now is       12.4 secs

     total energy              =    -126.80422725 Ry
     Harris-Foulkes estimate   =    -126.80447140 Ry
     estimated scf accuracy    <       0.00057847 Ry

     iteration #  4     ecut=    30.00 Ry     beta= 0.70
     Davidson diagonalization with overlap
     ethr =  9.04E-07,  avg # of iterations =  2.7

     total cpu time spent up to now is       16.7 secs

     total energy              =    -126.80437729 Ry
     Harris-Foulkes estimate   =    -126.80440593 Ry
     estimated scf accuracy    <       0.00006116 Ry

     iteration #  5     ecut=    30.00 Ry     beta= 0.70
     Davidson diagonalization with overlap
     ethr =  9.56E-08,  avg # of iterations =  2.3

     total cpu time spent up to now is       20.5 secs

     total energy              =    -126.80438734 Ry
     Harris-Foulkes estimate   =    -126.80438777 Ry
     estimated scf accuracy    <       0.00000138 Ry

     iteration #  6     ecut=    30.00 Ry     beta= 0.70
     Davidson diagonalization with overlap
     ethr =  2.16E-09,  avg # of iterations =  3.5

     total cpu time spent up to now is       25.2 secs

     total energy              =    -126.80438758 Ry
     Harris-Foulkes estimate   =    -126.80438772 Ry
     estimated scf accuracy    <       0.00000040 Ry

     iteration #  7     ecut=    30.00 Ry     beta= 0.70
     Davidson diagonalization with overlap
     ethr =  6.20E-10,  avg # of iterations =  1.5

     total cpu time spent up to now is       28.8 secs

     total energy              =    -126.80438759 Ry
     Harris-Foulkes estimate   =    -126.80438761 Ry
     estimated scf accuracy    <       0.00000004 Ry

     iteration #  8     ecut=    30.00 Ry     beta= 0.70
     Davidson diagonalization with overlap
     ethr =  6.43E-11,  avg # of iterations =  2.9

     total cpu time spent up to now is       34.0 secs

     total energy              =    -126.80438760 Ry
     Harris-Foulkes estimate   =    -126.80438760 Ry
     estimated scf accuracy    <          1.9E-09 Ry

     iteration #  9     ecut=    30.00 Ry     beta= 0.70
     Davidson diagonalization with overlap
     ethr =  2.94E-12,  avg # of iterations =  2.7

     total cpu time spent up to now is       38.6 secs

     total energy              =    -126.80438760 Ry
     Harris-Foulkes estimate   =    -126.80438760 Ry
     estimated scf accuracy    <          2.6E-10 Ry

     iteration # 10     ecut=    30.00 Ry     beta= 0.70
     Davidson diagonalization with overlap
     ethr =  4.02E-13,  avg # of iterations =  2.4

     total cpu time spent up to now is       42.5 secs

     End of self-consistent calculation

          k = 0.0000 0.0000 0.0000 (  5961 PWs)   bands (ev):

    -5.8156  -3.4310  -3.4236  -3.4236  -3.4162  -1.6115  -1.6113  -1.6023
    -1.6023  -1.5935  -1.5932  -0.8314  -0.8241  -0.8240  -0.8164   3.3266
     3.3311   3.3318   3.3318   3.3324   3.3370   5.0104   5.0131   5.0192
     5.0220   5.0233   5.0261   5.0320   5.0347   6.2290   6.2377   6.2464

          k =-0.2357 0.2357-0.2357 (  5888 PWs)   bands (ev):

    -5.4484  -4.4122  -3.2744  -3.2685  -3.2625  -2.6983  -2.6919  -2.6855
    -0.4387  -0.4312  -0.4242  -0.3384  -0.3315  -0.3241   0.8538   2.5132
     2.5171   2.5209   3.4129   3.4189   3.4250   3.6338   3.6361   3.6383
     3.8478   4.4278   4.4306   4.4331   5.2172   5.2285   5.7736   5.7857

          k = 0.0000 0.4714 0.0000 (  5866 PWs)   bands (ev):

    -5.3237  -3.8800  -3.6756  -3.6665  -3.6665  -3.6574  -1.4806  -1.4724
    -1.4713  -1.4631   0.1768   0.1856   0.1856   0.1944   1.2436   2.4973
     2.4986   2.5038   2.5050   3.1282   3.1362   3.1363   3.1443   3.7745
     3.7745   4.2294   4.9154   4.9203   4.9207   4.9256   5.0208   5.0209

          k = 0.4714-0.0000 0.4714 (  5902 PWs)   bands (ev):

    -4.8498  -4.4937  -4.4936  -3.4884  -3.4794  -2.4833  -2.4716  -2.4651
    -0.6399  -0.6276  -0.5490   0.5887   0.6025   1.7101   1.7898   1.7899
     2.1376   2.1390   2.5207   2.5820   2.5859   3.4056   3.4134   3.7678
     3.8892   3.8952   4.0881   4.2159   4.2162   4.4590   4.4593   5.6671

          k =-0.2357-0.2357 0.2357 (  5888 PWs)   bands (ev):

    -5.4486  -4.4131  -3.2721  -3.2684  -3.2624  -2.6958  -2.6917  -2.6865
    -0.4390  -0.4319  -0.4300  -0.3378  -0.3321  -0.3295   0.8581   2.5176
     2.5212   2.5221   3.4189   3.4246   3.4256   3.6306   3.6354   3.6373
     3.8524   4.4231   4.4293   4.4311   5.2178   5.2244   5.7735   5.7805

          k =-0.2357 0.2357 0.2357 (  5888 PWs)   bands (ev):

    -5.4483  -4.4114  -3.2745  -3.2686  -3.2648  -2.6973  -2.6921  -2.6880
    -0.4323  -0.4307  -0.4241  -0.3337  -0.3298  -0.3252   0.8496   2.5121
     2.5129   2.5165   3.4122   3.4134   3.4190   3.6350   3.6367   3.6416
     3.8431   4.4300   4.4316   4.4378   5.2213   5.2278   5.7789   5.7859

          k = 0.4714 0.0000 0.0000 (  5866 PWs)   bands (ev):

    -5.3237  -3.8800  -3.6741  -3.6672  -3.6658  -3.6590  -1.4795  -1.4719
    -1.4719  -1.4643   0.1778   0.1849   0.1863   0.1933   1.2437   2.4980
     2.5004   2.5021   2.5044   3.1302   3.1357   3.1369   3.1423   3.7720
     3.7768   4.2296   4.9109   4.9197   4.9213   4.9294   5.0176   5.0244

          k = 0.4714 0.0000-0.4714 (  5902 PWs)   bands (ev):

    -4.8498  -4.4942  -4.4931  -3.4839  -3.4839  -2.4832  -2.4695  -2.4673
    -0.6338  -0.6337  -0.5490   0.5956   0.5956   1.7102   1.7847   1.7951
     2.1382   2.1382   2.5210   2.5836   2.5840   3.4094   3.4096   3.7680
     3.8920   3.8922   4.0881   4.2100   4.2222   4.4585   4.4597   5.6671

          k =-0.0000 0.4714-0.4714 (  5902 PWs)   bands (ev):

    -4.8501  -4.4981  -4.4895  -3.4864  -3.4797  -2.4839  -2.4714  -2.4649
    -0.6391  -0.6329  -0.5452   0.5885   0.5954   1.7110   1.7873   1.7946
     2.1385   2.1431   2.5253   2.5820   2.5862   3.4060   3.4103   3.7674
     3.8909   3.8997   4.0853   4.2146   4.2219   4.4507   4.4615   5.6622

          k = 0.0000-0.4714-0.4714 (  5902 PWs)   bands (ev):

    -4.8495  -4.4978  -4.4892  -3.4881  -3.4814  -2.4794  -2.4740  -2.4664
    -0.6344  -0.6282  -0.5531   0.5958   0.6027   1.7092   1.7853   1.7926
     2.1332   2.1380   2.5169   2.5815   2.5855   3.4088   3.4130   3.7689
     3.8844   3.8934   4.0908   4.2102   4.2175   4.4567   4.4672   5.6720

     highest occupied level (ev):     6.2464

!    total energy              =    -126.80438760 Ry
     Harris-Foulkes estimate   =    -126.80438760 Ry
     estimated scf accuracy    <          3.3E-11 Ry

     The total energy is the sum of the following terms:

     one-electron contribution =      38.28223096 Ry
     hartree contribution      =       8.66141128 Ry
     xc contribution           =     -38.55022230 Ry
     ewald contribution        =    -135.19780754 Ry

     convergence has been achieved in  10 iterations

     Forces acting on atoms (cartesian axes, Ry/au):

     atom    1 type  1   force =     0.00017464    0.00000081    0.00512697
     atom    2 type  1   force =    -0.00094223   -0.00094386   -0.00130803
     atom    3 type  1   force =    -0.00512697    0.00000081   -0.00017464
     atom    4 type  1   force =     0.00131983    0.00096654    0.00096501
     atom    5 type  1   force =     0.00017508    0.00000069   -0.00017402
     atom    6 type  1   force =     0.00227463   -0.00002448   -0.00226357
     atom    7 type  1   force =    -0.00034415    0.00000029    0.00034376
     atom    8 type  1   force =     0.00226357   -0.00002448   -0.00227463
     atom    9 type  1   force =    -0.00034376    0.00000029    0.00034415
     atom   10 type  1   force =     0.00000136   -0.00000053   -0.00000178
     atom   11 type  1   force =     0.00017402    0.00000069   -0.00017508
     atom   12 type  1   force =     0.00000178   -0.00000053   -0.00000136
     atom   13 type  1   force =    -0.00014539    0.00000054   -0.00017457
     atom   14 type  1   force =    -0.00096501    0.00096654   -0.00131983
     atom   15 type  1   force =     0.00017457    0.00000054    0.00014539
     atom   16 type  1   force =     0.00130803   -0.00094386    0.00094223

     Total force =     0.009387     Total SCF correction =     0.000001


     Computing stress (Cartesian axis) and pressure

          total   stress  (Ry/bohr**3)                   (kbar)     P=        1.58
   0.00001073  -0.00000329   0.00000000            1.58       -0.48        0.00
  -0.00000329   0.00001079   0.00000329           -0.48        1.59        0.48
   0.00000000   0.00000329   0.00001073            0.00        0.48        1.58


     Writing output data file ./out/silicon.save/

     init_run     :      1.70s CPU      1.73s WALL (       1 calls)
     electrons    :     40.22s CPU     40.66s WALL (       1 calls)
     forces       :      0.33s CPU      0.33s WALL (       1 calls)
     stress       :      0.88s CPU      0.88s WALL (       1 calls)

     Called by init_run:
     wfcinit      :      1.59s CPU      1.60s WALL (       1 calls)
     potinit      :      0.03s CPU      0.04s WALL (       1 calls)
     hinit0       :      0.05s CPU      0.06s WALL (       1 calls)

     Called by electrons:
     c_bands      :     32.48s CPU     32.82s WALL (      11 calls)
     sum_band     :      7.06s CPU      7.13s WALL (      11 calls)
     v_of_rho     :      0.31s CPU      0.32s WALL (      11 calls)
     mix_rho      :      0.29s CPU      0.30s WALL (      11 calls)

     Called by c_bands:
     init_us_2    :      0.23s CPU      0.24s WALL (      75 calls)
     cegterg      :     30.41s CPU     30.74s WALL (      33 calls)

     Called by sum_band:

     Called by *egterg:
     h_psi        :     29.56s CPU     29.86s WALL (     118 calls)
     g_psi        :      0.07s CPU      0.07s WALL (      82 calls)
     cdiaghg      :      0.32s CPU      0.32s WALL (     112 calls)

     Called by h_psi:
     h_psi:calbec :      0.56s CPU      0.57s WALL (     118 calls)
     vloc_psi     :     28.37s CPU     28.64s WALL (     118 calls)
     add_vuspsi   :      0.53s CPU      0.53s WALL (     118 calls)

     General routines
     calbec       :      0.65s CPU      0.66s WALL (     133 calls)
     fft          :      0.32s CPU      0.33s WALL (      38 calls)
     ffts         :      0.07s CPU      0.07s WALL (      11 calls)
     fftw         :     30.52s CPU     30.81s WALL (    7008 calls)

     Parallel routines

     PWSCF        :     43.24s CPU     43.72s WALL


   This run was terminated on:  14:23: 7   2Nov2020            

=------------------------------------------------------------------------------=
   JOB DONE.
=------------------------------------------------------------------------------=
