
     Program PWSCF v.6.5 starts on  2Nov2020 at 14:24:14 

     This program is part of the open-source Quantum ESPRESSO suite
     for quantum simulation of materials; please cite
         "P. Giannozzi et al., J. Phys.:Condens. Matter 21 395502 (2009);
         "P. Giannozzi et al., J. Phys.:Condens. Matter 29 465901 (2017);
          URL http://www.quantum-espresso.org", 
     in publications or presentations arising from this work. More details at
     http://www.quantum-espresso.org/quote

     Parallel version (MPI), running on     4 processors

     MPI processes distributed on     1 nodes
     K-points division:     npool     =       4
     Reading input from DISP.supercell_template.in.15

     Current dimensions of program PWSCF are:
     Max number of different atomic species (ntypx) = 10
     Max number of k-points (npk) =  40000
     Max angular momentum in pseudopotentials (lmaxx) =  3

     Subspace diagonalization in iterative solution of the eigenvalue problem:
     a serial algorithm will be used

     Message from routine setup:
     using ibrav=0 with symmetry is DISCOURAGED, use correct ibrav instead

     G-vector sticks info
     --------------------
     sticks:   dense  smooth     PW     G-vecs:    dense   smooth      PW
     Sum        1723    1723    475                47183    47183    6855



     bravais-lattice index     =            0
     lattice parameter (alat)  =      14.4250  a.u.
     unit-cell volume          =    2122.4160 (a.u.)^3
     number of atoms/cell      =           16
     number of atomic types    =            1
     number of electrons       =        64.00
     number of Kohn-Sham states=           32
     kinetic-energy cutoff     =      30.0000  Ry
     charge density cutoff     =     120.0000  Ry
     convergence threshold     =      1.0E-10
     mixing beta               =       0.7000
     number of iterations used =            8  plain     mixing
     Exchange-correlation= SLA PZ NOGX NOGC
                           (   1   1   0   0   0   0   0)

     celldm(1)=  14.424978  celldm(2)=   0.000000  celldm(3)=   0.000000
     celldm(4)=   0.000000  celldm(5)=   0.000000  celldm(6)=   0.000000

     crystal axes: (cart. coord. in units of alat)
               a(1) = (  -0.707107   0.000000   0.707107 )  
               a(2) = (   0.000000   0.707107   0.707107 )  
               a(3) = (  -0.707107   0.707107   0.000000 )  

     reciprocal axes: (cart. coord. in units 2 pi/alat)
               b(1) = ( -0.707107 -0.707107  0.707107 )  
               b(2) = (  0.707107  0.707107  0.707107 )  
               b(3) = ( -0.707107  0.707107 -0.707107 )  


     PseudoPot. # 1 for Si read from file:
     ../../pseudoPotentials/Si.pz-vbc.UPF
     MD5 check sum: 9f25e6ff280f3123e9b3a84715b2e9c9
     Pseudo is Norm-conserving, Zval =  4.0
     Generated by new atomic code, or converted to UPF format
     Using radial grid of  431 points,  2 beta functions with: 
                l(1) =   0
                l(2) =   1

     atomic species   valence    mass     pseudopotential
        Si             4.00    28.08600     Si( 1.00)

      2 Sym. Ops. (no inversion) found ( 1 have fractional translation)



   Cartesian axes

     site n.     atom                  positions (alat units)
         1           Si  tau(   1) = (  -0.0883883  -0.0883883  -0.0896984  )
         2           Si  tau(   2) = (   0.0883883   0.0883883   0.0883883  )
         3           Si  tau(   3) = (  -0.4419417  -0.0883883   0.2664751  )
         4           Si  tau(   4) = (  -0.2651650   0.0883883   0.4419417  )
         5           Si  tau(   5) = (  -0.0883883   0.2651650   0.2651650  )
         6           Si  tau(   6) = (   0.0883883   0.4419417   0.4419417  )
         7           Si  tau(   7) = (  -0.4419417   0.2651650   0.6187184  )
         8           Si  tau(   8) = (  -0.2651650   0.4419417   0.7954951  )
         9           Si  tau(   9) = (  -0.4419417   0.2651650  -0.0883883  )
        10           Si  tau(  10) = (  -0.2651650   0.4419417   0.0883883  )
        11           Si  tau(  11) = (  -0.7954951   0.2651650   0.2651650  )
        12           Si  tau(  12) = (  -0.6187184   0.4419417   0.4419417  )
        13           Si  tau(  13) = (  -0.4419417   0.6187184   0.2651650  )
        14           Si  tau(  14) = (  -0.2651650   0.7954951   0.4419417  )
        15           Si  tau(  15) = (  -0.7954951   0.6187184   0.6187184  )
        16           Si  tau(  16) = (  -0.6187184   0.7954951   0.7954951  )

     number of k points=    10
                       cart. coord. in units 2pi/alat
        k(    1) = (   0.0000000   0.0000000   0.0000000), wk =   0.0740741
        k(    2) = (  -0.2357023   0.2357023  -0.2357023), wk =   0.2962963
        k(    3) = (   0.0000000   0.4714045   0.0000000), wk =   0.1481481
        k(    4) = (   0.4714045  -0.0000000   0.4714045), wk =   0.1481481
        k(    5) = (   0.2357023  -0.2357023  -0.2357023), wk =   0.2962963
        k(    6) = (   0.4714045   0.0000000   0.0000000), wk =   0.1481481
        k(    7) = (   0.0000000   0.0000000   0.4714045), wk =   0.1481481
        k(    8) = (  -0.4714045   0.0000000   0.4714045), wk =   0.1481481
        k(    9) = (  -0.0000000   0.4714045  -0.4714045), wk =   0.2962963
        k(   10) = (  -0.4714045   0.4714045  -0.0000000), wk =   0.2962963

     Dense  grid:    47183 G-vectors     FFT dimensions: (  54,  60,  60)

     Estimated max dynamical RAM per process >      74.18 MB

     Estimated total dynamical RAM >     296.71 MB

     Initial potential from superposition of free atoms

     starting charge   63.99206, renormalised to   64.00000
     Starting wfcs are   64 randomized atomic wfcs

     total cpu time spent up to now is        3.1 secs

     Self-consistent Calculation

     iteration #  1     ecut=    30.00 Ry     beta= 0.70
     Davidson diagonalization with overlap
     ethr =  1.00E-02,  avg # of iterations =  2.0

     Threshold (ethr) on eigenvalues was too large:
     Diagonalizing with lowered threshold

     Davidson diagonalization with overlap
     ethr =  8.05E-04,  avg # of iterations =  1.0

     total cpu time spent up to now is       11.6 secs

     total energy              =    -126.77600258 Ry
     Harris-Foulkes estimate   =    -126.94715174 Ry
     estimated scf accuracy    <       0.50307262 Ry

     iteration #  2     ecut=    30.00 Ry     beta= 0.70
     Davidson diagonalization with overlap
     ethr =  7.86E-04,  avg # of iterations =  1.0

     total cpu time spent up to now is       15.4 secs

     total energy              =    -126.80089706 Ry
     Harris-Foulkes estimate   =    -126.80333754 Ry
     estimated scf accuracy    <       0.01760646 Ry

     iteration #  3     ecut=    30.00 Ry     beta= 0.70
     Davidson diagonalization with overlap
     ethr =  2.75E-05,  avg # of iterations =  2.9

     total cpu time spent up to now is       20.3 secs

     total energy              =    -126.80421819 Ry
     Harris-Foulkes estimate   =    -126.80446891 Ry
     estimated scf accuracy    <       0.00058628 Ry

     iteration #  4     ecut=    30.00 Ry     beta= 0.70
     Davidson diagonalization with overlap
     ethr =  9.16E-07,  avg # of iterations =  2.5

     total cpu time spent up to now is       25.7 secs

     total energy              =    -126.80436492 Ry
     Harris-Foulkes estimate   =    -126.80440919 Ry
     estimated scf accuracy    <       0.00010006 Ry

     iteration #  5     ecut=    30.00 Ry     beta= 0.70
     Davidson diagonalization with overlap
     ethr =  1.56E-07,  avg # of iterations =  2.2

     total cpu time spent up to now is       30.8 secs

     total energy              =    -126.80437771 Ry
     Harris-Foulkes estimate   =    -126.80438482 Ry
     estimated scf accuracy    <       0.00001623 Ry

     iteration #  6     ecut=    30.00 Ry     beta= 0.70
     Davidson diagonalization with overlap
     ethr =  2.54E-08,  avg # of iterations =  2.0

     total cpu time spent up to now is       35.5 secs

     total energy              =    -126.80438044 Ry
     Harris-Foulkes estimate   =    -126.80438053 Ry
     estimated scf accuracy    <       0.00000036 Ry

     iteration #  7     ecut=    30.00 Ry     beta= 0.70
     Davidson diagonalization with overlap
     ethr =  5.68E-10,  avg # of iterations =  2.9

     total cpu time spent up to now is       40.9 secs

     total energy              =    -126.80438052 Ry
     Harris-Foulkes estimate   =    -126.80438055 Ry
     estimated scf accuracy    <       0.00000009 Ry

     iteration #  8     ecut=    30.00 Ry     beta= 0.70
     Davidson diagonalization with overlap
     ethr =  1.36E-10,  avg # of iterations =  1.9

     total cpu time spent up to now is       44.9 secs

     total energy              =    -126.80438052 Ry
     Harris-Foulkes estimate   =    -126.80438052 Ry
     estimated scf accuracy    <          4.6E-09 Ry

     iteration #  9     ecut=    30.00 Ry     beta= 0.70
     Davidson diagonalization with overlap
     ethr =  7.16E-12,  avg # of iterations =  3.2

     total cpu time spent up to now is       50.3 secs

     total energy              =    -126.80438052 Ry
     Harris-Foulkes estimate   =    -126.80438052 Ry
     estimated scf accuracy    <          1.1E-10 Ry

     iteration # 10     ecut=    30.00 Ry     beta= 0.70
     Davidson diagonalization with overlap
     ethr =  1.76E-13,  avg # of iterations =  3.3

     total cpu time spent up to now is       56.0 secs

     End of self-consistent calculation

          k = 0.0000 0.0000 0.0000 (  5961 PWs)   bands (ev):

    -5.8156  -3.4304  -3.4304  -3.4168  -3.4168  -1.6123  -1.6104  -1.6024
    -1.6022  -1.5942  -1.5924  -0.8285  -0.8285  -0.8195  -0.8194   3.3268
     3.3317   3.3318   3.3318   3.3318   3.3368   5.0111   5.0111   5.0206
     5.0206   5.0247   5.0247   5.0340   5.0340   6.2376   6.2378   6.2378

          k =-0.2357 0.2357-0.2357 (  5888 PWs)   bands (ev):

    -5.4485  -4.4123  -3.2752  -3.2684  -3.2618  -2.6984  -2.6919  -2.6853
    -0.4361  -0.4313  -0.4267  -0.3370  -0.3312  -0.3258   0.8539   2.5137
     2.5171   2.5204   3.4128   3.4190   3.4251   3.6335   3.6360   3.6387
     3.8479   4.4274   4.4305   4.4335   5.2229   5.2230   5.7796   5.7797

          k = 0.0000 0.4714 0.0000 (  5866 PWs)   bands (ev):

    -5.3238  -3.8802  -3.6746  -3.6745  -3.6585  -3.6584  -1.4719  -1.4719
    -1.4718  -1.4718   0.1799   0.1799   0.1912   0.1912   1.2437   2.5010
     2.5011   2.5012   2.5013   3.1298   3.1298   3.1428   3.1428   3.7745
     3.7745   4.2296   4.9163   4.9164   4.9245   4.9246   5.0207   5.0211

          k = 0.4714-0.0000 0.4714 (  5902 PWs)   bands (ev):

    -4.8498  -4.4938  -4.4936  -3.4839  -3.4837  -2.4843  -2.4695  -2.4661
    -0.6339  -0.6336  -0.5489   0.5954   0.5956   1.7101   1.7898   1.7899
     2.1383   2.1384   2.5204   2.5837   2.5845   3.4092   3.4095   3.7680
     3.8920   3.8923   4.0882   4.2161   4.2163   4.4590   4.4591   5.6671

          k = 0.2357-0.2357-0.2357 (  5888 PWs)   bands (ev):

    -5.4485  -4.4123  -3.2752  -3.2685  -3.2618  -2.6984  -2.6918  -2.6853
    -0.4360  -0.4316  -0.4267  -0.3369  -0.3312  -0.3257   0.8538   2.5137
     2.5171   2.5204   3.4128   3.4190   3.4251   3.6334   3.6360   3.6387
     3.8479   4.4275   4.4305   4.4336   5.2227   5.2229   5.7796   5.7799

          k = 0.4714 0.0000 0.0000 (  5866 PWs)   bands (ev):

    -5.3238  -3.8802  -3.6786  -3.6704  -3.6625  -3.6543  -1.4802  -1.4755
    -1.4682  -1.4635   0.1745   0.1853   0.1858   0.1966   1.2436   2.4969
     2.5010   2.5013   2.5054   3.1265   3.1331   3.1394   3.1461   3.7744
     3.7745   4.2297   4.9134   4.9193   4.9217   4.9274   5.0208   5.0211

          k = 0.0000 0.0000 0.4714 (  5866 PWs)   bands (ev):

    -5.3238  -3.8802  -3.6719  -3.6717  -3.6612  -3.6610  -1.4808  -1.4719
    -1.4719  -1.4630   0.1834   0.1834   0.1878   0.1879   1.2437   2.5008
     2.5012   2.5012   2.5017   3.1336   3.1336   3.1391   3.1391   3.7743
     3.7743   4.2296   4.9104   4.9104   4.9294   4.9294   5.0218   5.0218

          k =-0.4714 0.0000 0.4714 (  5902 PWs)   bands (ev):

    -4.8499  -4.4937  -4.4936  -3.4840  -3.4839  -2.4809  -2.4695  -2.4693
    -0.6337  -0.6336  -0.5492   0.5956   0.5956   1.7097   1.7899   1.7902
     2.1382   2.1383   2.5204   2.5837   2.5847   3.4093   3.4095   3.7675
     3.8921   3.8928   4.0880   4.2161   4.2162   4.4590   4.4592   5.6671

          k =-0.0000 0.4714-0.4714 (  5902 PWs)   bands (ev):

    -4.8499  -4.4937  -4.4936  -3.4883  -3.4794  -2.4828  -2.4695  -2.4676
    -0.6337  -0.6336  -0.5491   0.5887   0.6024   1.7099   1.7898   1.7901
     2.1383   2.1383   2.5204   2.5821   2.5861   3.4094   3.4094   3.7677
     3.8893   3.8953   4.0881   4.2161   4.2162   4.4591   4.4591   5.6671

          k =-0.4714 0.4714-0.0000 (  5902 PWs)   bands (ev):

    -4.8499  -4.5022  -4.4850  -3.4888  -3.4789  -2.4819  -2.4751  -2.4630
    -0.6344  -0.6329  -0.5491   0.5953   0.5959   1.7100   1.7849   1.7951
     2.1335   2.1428   2.5215   2.5801   2.5873   3.4078   3.4114   3.7683
     3.8836   3.9003   4.0878   4.2121   4.2202   4.4484   4.4696   5.6672

     highest occupied level (ev):     6.2378

!    total energy              =    -126.80438052 Ry
     Harris-Foulkes estimate   =    -126.80438052 Ry
     estimated scf accuracy    <          2.2E-11 Ry

     The total energy is the sum of the following terms:

     one-electron contribution =      38.28201189 Ry
     hartree contribution      =       8.66151122 Ry
     xc contribution           =     -38.55021983 Ry
     ewald contribution        =    -135.19768379 Ry

     convergence has been achieved in  10 iterations

     Forces acting on atoms (cartesian axes, Ry/au):

     atom    1 type  1   force =    -0.00019978    0.00000006    0.00550116
     atom    2 type  1   force =    -0.00083582   -0.00094379   -0.00141404
     atom    3 type  1   force =     0.00019978    0.00000006   -0.00550116
     atom    4 type  1   force =     0.00085904    0.00096672    0.00142624
     atom    5 type  1   force =     0.00000046   -0.00019981   -0.00051848
     atom    6 type  1   force =     0.00000000   -0.00182582    0.00000000
     atom    7 type  1   force =     0.00000046    0.00019986    0.00051794
     atom    8 type  1   force =     0.00000000    0.00177954    0.00000000
     atom    9 type  1   force =    -0.00000046   -0.00019981    0.00051848
     atom   10 type  1   force =     0.00000000    0.00010742    0.00000000
     atom   11 type  1   force =    -0.00000046    0.00019986   -0.00051794
     atom   12 type  1   force =     0.00000000   -0.00010821    0.00000000
     atom   13 type  1   force =    -0.00019982    0.00000050   -0.00011991
     atom   14 type  1   force =    -0.00085904    0.00096672   -0.00142624
     atom   15 type  1   force =     0.00019982    0.00000050    0.00011991
     atom   16 type  1   force =     0.00083582   -0.00094379    0.00141404

     Total force =     0.009114     Total SCF correction =     0.000007


     Computing stress (Cartesian axis) and pressure

          total   stress  (Ry/bohr**3)                   (kbar)     P=        1.58
   0.00001079   0.00000000  -0.00000000            1.59        0.00       -0.00
   0.00000000   0.00001079   0.00000000            0.00        1.59        0.00
  -0.00000000   0.00000000   0.00001065           -0.00        0.00        1.57


     Writing output data file ./out/silicon.save/

     init_run     :      2.89s CPU      2.95s WALL (       1 calls)
     electrons    :     52.66s CPU     52.97s WALL (       1 calls)
     forces       :      0.36s CPU      0.36s WALL (       1 calls)
     stress       :      0.94s CPU      0.94s WALL (       1 calls)

     Called by init_run:
     wfcinit      :      2.70s CPU      2.74s WALL (       1 calls)
     potinit      :      0.05s CPU      0.06s WALL (       1 calls)
     hinit0       :      0.09s CPU      0.09s WALL (       1 calls)

     Called by electrons:
     c_bands      :     42.82s CPU     43.08s WALL (      11 calls)
     sum_band     :      9.04s CPU      9.08s WALL (      11 calls)
     v_of_rho     :      0.33s CPU      0.34s WALL (      11 calls)
     mix_rho      :      0.28s CPU      0.29s WALL (      11 calls)

     Called by c_bands:
     init_us_2    :      0.29s CPU      0.29s WALL (      75 calls)
     cegterg      :     39.99s CPU     40.24s WALL (      33 calls)

     Called by sum_band:

     Called by *egterg:
     h_psi        :     39.53s CPU     39.75s WALL (     119 calls)
     g_psi        :      0.09s CPU      0.09s WALL (      83 calls)
     cdiaghg      :      0.38s CPU      0.39s WALL (     113 calls)

     Called by h_psi:
     h_psi:calbec :      0.73s CPU      0.73s WALL (     119 calls)
     vloc_psi     :     38.01s CPU     38.19s WALL (     119 calls)
     add_vuspsi   :      0.68s CPU      0.68s WALL (     119 calls)

     General routines
     calbec       :      0.84s CPU      0.85s WALL (     134 calls)
     fft          :      0.37s CPU      0.37s WALL (      38 calls)
     ffts         :      0.07s CPU      0.07s WALL (      11 calls)
     fftw         :     40.08s CPU     40.27s WALL (    7222 calls)

     Parallel routines

     PWSCF        :     56.96s CPU     57.37s WALL


   This run was terminated on:  14:25:12   2Nov2020            

=------------------------------------------------------------------------------=
   JOB DONE.
=------------------------------------------------------------------------------=
