
     Program PWSCF v.6.5 starts on  2Nov2020 at 14:26:41 

     This program is part of the open-source Quantum ESPRESSO suite
     for quantum simulation of materials; please cite
         "P. Giannozzi et al., J. Phys.:Condens. Matter 21 395502 (2009);
         "P. Giannozzi et al., J. Phys.:Condens. Matter 29 465901 (2017);
          URL http://www.quantum-espresso.org", 
     in publications or presentations arising from this work. More details at
     http://www.quantum-espresso.org/quote

     Parallel version (MPI), running on     4 processors

     MPI processes distributed on     1 nodes
     K-points division:     npool     =       4
     Reading input from DISP.supercell_template.in.18

     Current dimensions of program PWSCF are:
     Max number of different atomic species (ntypx) = 10
     Max number of k-points (npk) =  40000
     Max angular momentum in pseudopotentials (lmaxx) =  3

     Subspace diagonalization in iterative solution of the eigenvalue problem:
     a serial algorithm will be used

     Message from routine setup:
     using ibrav=0 with symmetry is DISCOURAGED, use correct ibrav instead

     G-vector sticks info
     --------------------
     sticks:   dense  smooth     PW     G-vecs:    dense   smooth      PW
     Sum        1723    1723    475                47183    47183    6855



     bravais-lattice index     =            0
     lattice parameter (alat)  =      14.4250  a.u.
     unit-cell volume          =    2122.4160 (a.u.)^3
     number of atoms/cell      =           16
     number of atomic types    =            1
     number of electrons       =        64.00
     number of Kohn-Sham states=           32
     kinetic-energy cutoff     =      30.0000  Ry
     charge density cutoff     =     120.0000  Ry
     convergence threshold     =      1.0E-10
     mixing beta               =       0.7000
     number of iterations used =            8  plain     mixing
     Exchange-correlation= SLA PZ NOGX NOGC
                           (   1   1   0   0   0   0   0)

     celldm(1)=  14.424978  celldm(2)=   0.000000  celldm(3)=   0.000000
     celldm(4)=   0.000000  celldm(5)=   0.000000  celldm(6)=   0.000000

     crystal axes: (cart. coord. in units of alat)
               a(1) = (  -0.707107   0.000000   0.707107 )  
               a(2) = (   0.000000   0.707107   0.707107 )  
               a(3) = (  -0.707107   0.707107   0.000000 )  

     reciprocal axes: (cart. coord. in units 2 pi/alat)
               b(1) = ( -0.707107 -0.707107  0.707107 )  
               b(2) = (  0.707107  0.707107  0.707107 )  
               b(3) = ( -0.707107  0.707107 -0.707107 )  


     PseudoPot. # 1 for Si read from file:
     ../../pseudoPotentials/Si.pz-vbc.UPF
     MD5 check sum: 9f25e6ff280f3123e9b3a84715b2e9c9
     Pseudo is Norm-conserving, Zval =  4.0
     Generated by new atomic code, or converted to UPF format
     Using radial grid of  431 points,  2 beta functions with: 
                l(1) =   0
                l(2) =   1

     atomic species   valence    mass     pseudopotential
        Si             4.00    28.08600     Si( 1.00)

      4 Sym. Ops. (no inversion) found ( 2 have fractional translation)



   Cartesian axes

     site n.     atom                  positions (alat units)
         1           Si  tau(   1) = (  -0.0883883  -0.0883883  -0.0857683  )
         2           Si  tau(   2) = (   0.0883883   0.0883883   0.0883883  )
         3           Si  tau(   3) = (  -0.4419417  -0.0883883   0.2651650  )
         4           Si  tau(   4) = (  -0.2651650   0.0883883   0.4419417  )
         5           Si  tau(   5) = (  -0.0883883   0.2651650   0.2651650  )
         6           Si  tau(   6) = (   0.0883883   0.4419417   0.4419417  )
         7           Si  tau(   7) = (  -0.4419417   0.2651650   0.6187184  )
         8           Si  tau(   8) = (  -0.2651650   0.4419417   0.7954951  )
         9           Si  tau(   9) = (  -0.4419417   0.2651650  -0.0883883  )
        10           Si  tau(  10) = (  -0.2651650   0.4419417   0.0883883  )
        11           Si  tau(  11) = (  -0.7954951   0.2651650   0.2651650  )
        12           Si  tau(  12) = (  -0.6187184   0.4419417   0.4419417  )
        13           Si  tau(  13) = (  -0.4419417   0.6187184   0.2651650  )
        14           Si  tau(  14) = (  -0.2651650   0.7954951   0.4419417  )
        15           Si  tau(  15) = (  -0.7954951   0.6187184   0.6187184  )
        16           Si  tau(  16) = (  -0.6187184   0.7954951   0.7954951  )

     number of k points=     8
                       cart. coord. in units 2pi/alat
        k(    1) = (   0.0000000   0.0000000   0.0000000), wk =   0.0740741
        k(    2) = (  -0.2357023   0.2357023  -0.2357023), wk =   0.2962963
        k(    3) = (   0.0000000   0.4714045   0.0000000), wk =   0.2962963
        k(    4) = (   0.4714045  -0.0000000   0.4714045), wk =   0.5925926
        k(    5) = (   0.2357023   0.2357023  -0.2357023), wk =   0.2962963
        k(    6) = (   0.0000000   0.0000000   0.4714045), wk =   0.1481481
        k(    7) = (  -0.4714045   0.4714045  -0.0000000), wk =   0.1481481
        k(    8) = (  -0.4714045  -0.4714045   0.0000000), wk =   0.1481481

     Dense  grid:    47183 G-vectors     FFT dimensions: (  60,  60,  54)

     Estimated max dynamical RAM per process >      71.30 MB

     Estimated total dynamical RAM >     285.21 MB

     Initial potential from superposition of free atoms

     starting charge   63.99206, renormalised to   64.00000
     Starting wfcs are   64 randomized atomic wfcs

     total cpu time spent up to now is        2.1 secs

     Self-consistent Calculation

     iteration #  1     ecut=    30.00 Ry     beta= 0.70
     Davidson diagonalization with overlap
     ethr =  1.00E-02,  avg # of iterations =  2.0

     Threshold (ethr) on eigenvalues was too large:
     Diagonalizing with lowered threshold

     Davidson diagonalization with overlap
     ethr =  8.05E-04,  avg # of iterations =  1.0

     total cpu time spent up to now is        8.0 secs

     total energy              =    -126.77588009 Ry
     Harris-Foulkes estimate   =    -126.94706031 Ry
     estimated scf accuracy    <       0.50313402 Ry

     iteration #  2     ecut=    30.00 Ry     beta= 0.70
     Davidson diagonalization with overlap
     ethr =  7.86E-04,  avg # of iterations =  1.0

     total cpu time spent up to now is       10.5 secs

     total energy              =    -126.80079471 Ry
     Harris-Foulkes estimate   =    -126.80323652 Ry
     estimated scf accuracy    <       0.01760542 Ry

     iteration #  3     ecut=    30.00 Ry     beta= 0.70
     Davidson diagonalization with overlap
     ethr =  2.75E-05,  avg # of iterations =  2.9

     total cpu time spent up to now is       13.8 secs

     total energy              =    -126.80411705 Ry
     Harris-Foulkes estimate   =    -126.80437292 Ry
     estimated scf accuracy    <       0.00059207 Ry

     iteration #  4     ecut=    30.00 Ry     beta= 0.70
     Davidson diagonalization with overlap
     ethr =  9.25E-07,  avg # of iterations =  2.6

     total cpu time spent up to now is       17.1 secs

     total energy              =    -126.80426158 Ry
     Harris-Foulkes estimate   =    -126.80432135 Ry
     estimated scf accuracy    <       0.00013755 Ry

     iteration #  5     ecut=    30.00 Ry     beta= 0.70
     Davidson diagonalization with overlap
     ethr =  2.15E-07,  avg # of iterations =  2.2

     total cpu time spent up to now is       20.3 secs

     total energy              =    -126.80428040 Ry
     Harris-Foulkes estimate   =    -126.80428799 Ry
     estimated scf accuracy    <       0.00001714 Ry

     iteration #  6     ecut=    30.00 Ry     beta= 0.70
     Davidson diagonalization with overlap
     ethr =  2.68E-08,  avg # of iterations =  2.1

     total cpu time spent up to now is       23.5 secs

     total energy              =    -126.80428312 Ry
     Harris-Foulkes estimate   =    -126.80428319 Ry
     estimated scf accuracy    <       0.00000032 Ry

     iteration #  7     ecut=    30.00 Ry     beta= 0.70
     Davidson diagonalization with overlap
     ethr =  5.03E-10,  avg # of iterations =  3.5

     total cpu time spent up to now is       27.2 secs

     total energy              =    -126.80428320 Ry
     Harris-Foulkes estimate   =    -126.80428322 Ry
     estimated scf accuracy    <       0.00000009 Ry

     iteration #  8     ecut=    30.00 Ry     beta= 0.70
     Davidson diagonalization with overlap
     ethr =  1.42E-10,  avg # of iterations =  1.0

     total cpu time spent up to now is       29.7 secs

     total energy              =    -126.80428320 Ry
     Harris-Foulkes estimate   =    -126.80428320 Ry
     estimated scf accuracy    <          7.9E-09 Ry

     iteration #  9     ecut=    30.00 Ry     beta= 0.70
     Davidson diagonalization with overlap
     ethr =  1.23E-11,  avg # of iterations =  2.9

     total cpu time spent up to now is       32.7 secs

     total energy              =    -126.80428320 Ry
     Harris-Foulkes estimate   =    -126.80428320 Ry
     estimated scf accuracy    <          3.1E-10 Ry

     iteration # 10     ecut=    30.00 Ry     beta= 0.70
     Davidson diagonalization with overlap
     ethr =  4.82E-13,  avg # of iterations =  3.1

     total cpu time spent up to now is       36.2 secs

     End of self-consistent calculation

          k = 0.0000 0.0000 0.0000 (  5961 PWs)   bands (ev):

    -5.8157  -3.4334  -3.4276  -3.4197  -3.4140  -1.6186  -1.6105  -1.6023
    -1.6023  -1.5943  -1.5863  -0.8343  -0.8255  -0.8225  -0.8133   3.3243
     3.3309   3.3318   3.3319   3.3326   3.3391   5.0010   5.0167   5.0202
     5.0216   5.0236   5.0249   5.0288   5.0438   6.2256   6.2376   6.2502

          k =-0.2357 0.2357-0.2357 (  5888 PWs)   bands (ev):

    -5.4487  -4.4132  -3.2723  -3.2721  -3.2589  -2.6963  -2.6955  -2.6821
    -0.4428  -0.4341  -0.4253  -0.3384  -0.3365  -0.3232   0.8581   2.5172
     2.5181   2.5254   3.4182   3.4196   3.4311   3.6296   3.6354   3.6380
     3.8526   4.4222   4.4297   4.4318   5.2145   5.2278   5.7702   5.7840

          k = 0.0000 0.4714 0.0000 (  5866 PWs)   bands (ev):

    -5.3238  -3.8804  -3.6788  -3.6703  -3.6627  -3.6542  -1.4842  -1.4720
    -1.4719  -1.4594   0.1732   0.1845   0.1866   0.1979   1.2437   2.4947
     2.4995   2.5028   2.5074   3.1250   3.1345   3.1380   3.1475   3.7745
     3.7745   4.2295   4.9133   4.9194   4.9217   4.9275   5.0208   5.0215

          k = 0.4714-0.0000 0.4714 (  5902 PWs)   bands (ev):

    -4.8500  -4.4942  -4.4932  -3.4884  -3.4794  -2.4845  -2.4711  -2.4643
    -0.6399  -0.6276  -0.5489   0.5887   0.6024   1.7096   1.7849   1.7952
     2.1375   2.1389   2.5204   2.5821   2.5861   3.4054   3.4132   3.7677
     3.8893   3.8953   4.0881   4.2101   4.2223   4.4586   4.4599   5.6672

          k = 0.2357 0.2357-0.2357 (  5888 PWs)   bands (ev):

    -5.4484  -4.4115  -3.2784  -3.2651  -3.2648  -2.7015  -2.6883  -2.6874
    -0.4382  -0.4286  -0.4216  -0.3385  -0.3262  -0.3226   0.8496   2.5086
     2.5161   2.5168   3.4067   3.4182   3.4196   3.6345   3.6366   3.6422
     3.8434   4.4297   4.4311   4.4387   5.2182   5.2310   5.7754   5.7896

          k = 0.0000 0.0000 0.4714 (  5866 PWs)   bands (ev):

    -5.3239  -3.8806  -3.6735  -3.6699  -3.6632  -3.6589  -1.4809  -1.4722
    -1.4719  -1.4630   0.1772   0.1815   0.1896   0.1942   1.2437   2.5008
     2.5012   2.5012   2.5017   3.1321   3.1351   3.1374   3.1408   3.7694
     3.7790   4.2297   4.9016   4.9182   4.9226   4.9351   5.0158   5.0299

          k =-0.4714 0.4714-0.0000 (  5902 PWs)   bands (ev):

    -4.8506  -4.5024  -4.4854  -3.4872  -3.4772  -2.4862  -2.4738  -2.4606
    -0.6394  -0.6376  -0.5411   0.5881   0.5886   1.7116   1.7869   1.7970
     2.1388   2.1477   2.5301   2.5809   2.5878   3.4051   3.4086   3.7668
     3.8901   3.9063   4.0820   4.2165   4.2250   4.4427   4.4637   5.6575

          k =-0.4714-0.4714 0.0000 (  5902 PWs)   bands (ev):

    -4.8494  -4.5021  -4.4847  -3.4905  -3.4806  -2.4814  -2.4730  -2.4653
    -0.6297  -0.6283  -0.5570   0.6026   0.6033   1.7080   1.7828   1.7932
     2.1282   2.1376   2.5132   2.5795   2.5868   3.4105   3.4142   3.7698
     3.8769   3.8940   4.0930   4.2081   4.2157   4.4542   4.4756   5.6770

     highest occupied level (ev):     6.2502

!    total energy              =    -126.80428320 Ry
     Harris-Foulkes estimate   =    -126.80428320 Ry
     estimated scf accuracy    <          7.5E-11 Ry

     The total energy is the sum of the following terms:

     one-electron contribution =      38.28169458 Ry
     hartree contribution      =       8.66164070 Ry
     xc contribution           =     -38.55022704 Ry
     ewald contribution        =    -135.19739144 Ry

     convergence has been achieved in  10 iterations

     Forces acting on atoms (cartesian axes, Ry/au):

     atom    1 type  1   force =     0.00000000    0.00000000   -0.01065109
     atom    2 type  1   force =     0.00184907    0.00184907    0.00275934
     atom    3 type  1   force =    -0.00039977   -0.00000249    0.00034893
     atom    4 type  1   force =     0.00010736   -0.00010736   -0.00010428
     atom    5 type  1   force =     0.00000249    0.00039977    0.00034893
     atom    6 type  1   force =    -0.00175669    0.00175669    0.00271034
     atom    7 type  1   force =     0.00000000    0.00000000   -0.00068770
     atom    8 type  1   force =    -0.00184907   -0.00184907    0.00275934
     atom    9 type  1   force =     0.00000000    0.00000000   -0.00068682
     atom   10 type  1   force =    -0.00010812   -0.00010812   -0.00010519
     atom   11 type  1   force =    -0.00000249   -0.00039977    0.00034893
     atom   12 type  1   force =    -0.00010736    0.00010736   -0.00010428
     atom   13 type  1   force =     0.00039977    0.00000249    0.00034893
     atom   14 type  1   force =     0.00175669   -0.00175669    0.00271034
     atom   15 type  1   force =     0.00000000    0.00000000    0.00010947
     atom   16 type  1   force =     0.00010812    0.00010812   -0.00010519

     Total force =     0.013100     Total SCF correction =     0.000016


     Computing stress (Cartesian axis) and pressure

          total   stress  (Ry/bohr**3)                   (kbar)     P=        1.59
   0.00001089   0.00000659  -0.00000000            1.60        0.97       -0.00
   0.00000659   0.00001089  -0.00000000            0.97        1.60       -0.00
   0.00000000  -0.00000000   0.00001064            0.00       -0.00        1.56


     Writing output data file ./out/silicon.save/

     init_run     :      1.92s CPU      1.97s WALL (       1 calls)
     electrons    :     33.95s CPU     34.20s WALL (       1 calls)
     forces       :      0.36s CPU      0.36s WALL (       1 calls)
     stress       :      0.80s CPU      0.80s WALL (       1 calls)

     Called by init_run:
     wfcinit      :      1.72s CPU      1.75s WALL (       1 calls)
     potinit      :      0.05s CPU      0.06s WALL (       1 calls)
     hinit0       :      0.10s CPU      0.10s WALL (       1 calls)

     Called by electrons:
     c_bands      :     27.30s CPU     27.49s WALL (      11 calls)
     sum_band     :      5.88s CPU      5.93s WALL (      11 calls)
     v_of_rho     :      0.34s CPU      0.35s WALL (      11 calls)
     mix_rho      :      0.29s CPU      0.29s WALL (      11 calls)

     Called by c_bands:
     init_us_2    :      0.21s CPU      0.21s WALL (      50 calls)
     cegterg      :     26.15s CPU     26.33s WALL (      22 calls)

     Called by sum_band:

     Called by *egterg:
     h_psi        :     25.62s CPU     25.80s WALL (      81 calls)
     g_psi        :      0.07s CPU      0.07s WALL (      57 calls)
     cdiaghg      :      0.27s CPU      0.27s WALL (      77 calls)

     Called by h_psi:
     h_psi:calbec :      0.53s CPU      0.53s WALL (      81 calls)
     vloc_psi     :     24.51s CPU     24.66s WALL (      81 calls)
     add_vuspsi   :      0.49s CPU      0.49s WALL (      81 calls)

     General routines
     calbec       :      0.61s CPU      0.62s WALL (      91 calls)
     fft          :      0.37s CPU      0.37s WALL (      38 calls)
     ffts         :      0.09s CPU      0.09s WALL (      11 calls)
     fftw         :     24.92s CPU     25.07s WALL (    4758 calls)

     Parallel routines

     PWSCF        :     37.13s CPU     37.45s WALL


   This run was terminated on:  14:27:19   2Nov2020            

=------------------------------------------------------------------------------=
   JOB DONE.
=------------------------------------------------------------------------------=
