
     Program PWSCF v.6.5 starts on  2Nov2020 at 14:29:45 

     This program is part of the open-source Quantum ESPRESSO suite
     for quantum simulation of materials; please cite
         "P. Giannozzi et al., J. Phys.:Condens. Matter 21 395502 (2009);
         "P. Giannozzi et al., J. Phys.:Condens. Matter 29 465901 (2017);
          URL http://www.quantum-espresso.org", 
     in publications or presentations arising from this work. More details at
     http://www.quantum-espresso.org/quote

     Parallel version (MPI), running on     4 processors

     MPI processes distributed on     1 nodes
     K-points division:     npool     =       4
     Reading input from DISP.supercell_template.in.22

     Current dimensions of program PWSCF are:
     Max number of different atomic species (ntypx) = 10
     Max number of k-points (npk) =  40000
     Max angular momentum in pseudopotentials (lmaxx) =  3

     Subspace diagonalization in iterative solution of the eigenvalue problem:
     a serial algorithm will be used


     G-vector sticks info
     --------------------
     sticks:   dense  smooth     PW     G-vecs:    dense   smooth      PW
     Sum        1723    1723    475                47183    47183    6855



     bravais-lattice index     =            0
     lattice parameter (alat)  =      14.4250  a.u.
     unit-cell volume          =    2122.4160 (a.u.)^3
     number of atoms/cell      =           16
     number of atomic types    =            1
     number of electrons       =        64.00
     number of Kohn-Sham states=           32
     kinetic-energy cutoff     =      30.0000  Ry
     charge density cutoff     =     120.0000  Ry
     convergence threshold     =      1.0E-10
     mixing beta               =       0.7000
     number of iterations used =            8  plain     mixing
     Exchange-correlation= SLA PZ NOGX NOGC
                           (   1   1   0   0   0   0   0)

     celldm(1)=  14.424978  celldm(2)=   0.000000  celldm(3)=   0.000000
     celldm(4)=   0.000000  celldm(5)=   0.000000  celldm(6)=   0.000000

     crystal axes: (cart. coord. in units of alat)
               a(1) = (  -0.707107   0.000000   0.707107 )  
               a(2) = (   0.000000   0.707107   0.707107 )  
               a(3) = (  -0.707107   0.707107   0.000000 )  

     reciprocal axes: (cart. coord. in units 2 pi/alat)
               b(1) = ( -0.707107 -0.707107  0.707107 )  
               b(2) = (  0.707107  0.707107  0.707107 )  
               b(3) = ( -0.707107  0.707107 -0.707107 )  


     PseudoPot. # 1 for Si read from file:
     ../../pseudoPotentials/Si.pz-vbc.UPF
     MD5 check sum: 9f25e6ff280f3123e9b3a84715b2e9c9
     Pseudo is Norm-conserving, Zval =  4.0
     Generated by new atomic code, or converted to UPF format
     Using radial grid of  431 points,  2 beta functions with: 
                l(1) =   0
                l(2) =   1

     atomic species   valence    mass     pseudopotential
        Si             4.00    28.08600     Si( 1.00)

     No symmetry found



   Cartesian axes

     site n.     atom                  positions (alat units)
         1           Si  tau(   1) = (  -0.0883883  -0.0870783  -0.0883883  )
         2           Si  tau(   2) = (   0.0883883   0.0883883   0.0896984  )
         3           Si  tau(   3) = (  -0.4419417  -0.0883883   0.2651650  )
         4           Si  tau(   4) = (  -0.2651650   0.0883883   0.4419417  )
         5           Si  tau(   5) = (  -0.0883883   0.2651650   0.2651650  )
         6           Si  tau(   6) = (   0.0883883   0.4419417   0.4419417  )
         7           Si  tau(   7) = (  -0.4419417   0.2651650   0.6187184  )
         8           Si  tau(   8) = (  -0.2651650   0.4419417   0.7954951  )
         9           Si  tau(   9) = (  -0.4419417   0.2651650  -0.0883883  )
        10           Si  tau(  10) = (  -0.2651650   0.4419417   0.0883883  )
        11           Si  tau(  11) = (  -0.7954951   0.2651650   0.2651650  )
        12           Si  tau(  12) = (  -0.6187184   0.4419417   0.4419417  )
        13           Si  tau(  13) = (  -0.4419417   0.6187184   0.2651650  )
        14           Si  tau(  14) = (  -0.2651650   0.7954951   0.4419417  )
        15           Si  tau(  15) = (  -0.7954951   0.6187184   0.6187184  )
        16           Si  tau(  16) = (  -0.6187184   0.7954951   0.7954951  )

     number of k points=    14
                       cart. coord. in units 2pi/alat
        k(    1) = (   0.0000000   0.0000000   0.0000000), wk =   0.0740741
        k(    2) = (  -0.2357023   0.2357023  -0.2357023), wk =   0.1481481
        k(    3) = (   0.0000000   0.4714045   0.0000000), wk =   0.1481481
        k(    4) = (   0.4714045  -0.0000000   0.4714045), wk =   0.1481481
        k(    5) = (   0.2357023  -0.2357023  -0.2357023), wk =   0.1481481
        k(    6) = (   0.2357023   0.2357023   0.2357023), wk =   0.1481481
        k(    7) = (  -0.2357023  -0.2357023   0.2357023), wk =   0.1481481
        k(    8) = (   0.4714045   0.0000000   0.0000000), wk =   0.1481481
        k(    9) = (   0.0000000   0.0000000   0.4714045), wk =   0.1481481
        k(   10) = (  -0.4714045   0.0000000   0.4714045), wk =   0.1481481
        k(   11) = (  -0.0000000   0.4714045  -0.4714045), wk =   0.1481481
        k(   12) = (   0.0000000  -0.4714045  -0.4714045), wk =   0.1481481
        k(   13) = (  -0.4714045   0.4714045  -0.0000000), wk =   0.1481481
        k(   14) = (  -0.4714045  -0.4714045   0.0000000), wk =   0.1481481

     Dense  grid:    47183 G-vectors     FFT dimensions: (  54,  54,  54)

     Estimated max dynamical RAM per process >      74.52 MB

     Estimated total dynamical RAM >     298.07 MB

     Initial potential from superposition of free atoms

     starting charge   63.99206, renormalised to   64.00000
     Starting wfcs are   64 randomized atomic wfcs

     total cpu time spent up to now is        3.4 secs

     Self-consistent Calculation

     iteration #  1     ecut=    30.00 Ry     beta= 0.70
     Davidson diagonalization with overlap
     ethr =  1.00E-02,  avg # of iterations =  2.0

     Threshold (ethr) on eigenvalues was too large:
     Diagonalizing with lowered threshold

     Davidson diagonalization with overlap
     ethr =  8.05E-04,  avg # of iterations =  1.0

     total cpu time spent up to now is       13.1 secs

     total energy              =    -126.77601967 Ry
     Harris-Foulkes estimate   =    -126.94717129 Ry
     estimated scf accuracy    <       0.50308047 Ry

     iteration #  2     ecut=    30.00 Ry     beta= 0.70
     Davidson diagonalization with overlap
     ethr =  7.86E-04,  avg # of iterations =  1.0

     total cpu time spent up to now is       17.3 secs

     total energy              =    -126.80091833 Ry
     Harris-Foulkes estimate   =    -126.80335686 Ry
     estimated scf accuracy    <       0.01760357 Ry

     iteration #  3     ecut=    30.00 Ry     beta= 0.70
     Davidson diagonalization with overlap
     ethr =  2.75E-05,  avg # of iterations =  2.9

     total cpu time spent up to now is       23.4 secs

     total energy              =    -126.80423843 Ry
     Harris-Foulkes estimate   =    -126.80448535 Ry
     estimated scf accuracy    <       0.00058153 Ry

     iteration #  4     ecut=    30.00 Ry     beta= 0.70
     Davidson diagonalization with overlap
     ethr =  9.09E-07,  avg # of iterations =  2.6

     total cpu time spent up to now is       29.4 secs

     total energy              =    -126.80438773 Ry
     Harris-Foulkes estimate   =    -126.80442398 Ry
     estimated scf accuracy    <       0.00008000 Ry

     iteration #  5     ecut=    30.00 Ry     beta= 0.70
     Davidson diagonalization with overlap
     ethr =  1.25E-07,  avg # of iterations =  2.4

     total cpu time spent up to now is       35.4 secs

     total energy              =    -126.80439805 Ry
     Harris-Foulkes estimate   =    -126.80440414 Ry
     estimated scf accuracy    <       0.00001419 Ry

     iteration #  6     ecut=    30.00 Ry     beta= 0.70
     Davidson diagonalization with overlap
     ethr =  2.22E-08,  avg # of iterations =  2.1

     total cpu time spent up to now is       41.0 secs

     total energy              =    -126.80440062 Ry
     Harris-Foulkes estimate   =    -126.80440074 Ry
     estimated scf accuracy    <       0.00000039 Ry

     iteration #  7     ecut=    30.00 Ry     beta= 0.70
     Davidson diagonalization with overlap
     ethr =  6.15E-10,  avg # of iterations =  2.9

     total cpu time spent up to now is       46.9 secs

     total energy              =    -126.80440070 Ry
     Harris-Foulkes estimate   =    -126.80440072 Ry
     estimated scf accuracy    <       0.00000006 Ry

     iteration #  8     ecut=    30.00 Ry     beta= 0.70
     Davidson diagonalization with overlap
     ethr =  9.03E-11,  avg # of iterations =  2.1

     total cpu time spent up to now is       51.7 secs

     total energy              =    -126.80440070 Ry
     Harris-Foulkes estimate   =    -126.80440070 Ry
     estimated scf accuracy    <          1.8E-09 Ry

     iteration #  9     ecut=    30.00 Ry     beta= 0.70
     Davidson diagonalization with overlap
     ethr =  2.84E-12,  avg # of iterations =  3.8

     total cpu time spent up to now is       58.2 secs

     End of self-consistent calculation

          k = 0.0000 0.0000 0.0000 (  5961 PWs)   bands (ev):

    -5.8156  -3.4300  -3.4272  -3.4200  -3.4171  -1.6110  -1.6073  -1.6060
    -1.5986  -1.5973  -1.5937  -0.8313  -0.8254  -0.8226  -0.8166   3.3276
     3.3296   3.3318   3.3318   3.3339   3.3360   5.0107   5.0142   5.0195
     5.0217   5.0235   5.0258   5.0312   5.0344   6.2290   6.2377   6.2464

          k =-0.2357 0.2357-0.2357 (  5888 PWs)   bands (ev):

    -5.4483  -4.4114  -3.2746  -3.2686  -3.2648  -2.6972  -2.6920  -2.6879
    -0.4323  -0.4307  -0.4240  -0.3333  -0.3305  -0.3248   0.8496   2.5116
     2.5135   2.5164   3.4104   3.4151   3.4192   3.6352   3.6385   3.6395
     3.8433   4.4302   4.4340   4.4353   5.2214   5.2278   5.7788   5.7859

          k = 0.0000 0.4714 0.0000 (  5866 PWs)   bands (ev):

    -5.3238  -3.8802  -3.6733  -3.6697  -3.6632  -3.6596  -1.4807  -1.4719
    -1.4678  -1.4671   0.1779   0.1845   0.1867   0.1933   1.2436   2.4979
     2.5005   2.5021   2.5043   3.1304   3.1346   3.1379   3.1422   3.7720
     3.7768   4.2296   4.9110   4.9182   4.9227   4.9287   5.0179   5.0250

          k = 0.4714-0.0000 0.4714 (  5902 PWs)   bands (ev):

    -4.8496  -4.4978  -4.4891  -3.4880  -3.4814  -2.4810  -2.4721  -2.4666
    -0.6344  -0.6282  -0.5530   0.5958   0.6027   1.7090   1.7853   1.7928
     2.1333   2.1379   2.5171   2.5814   2.5854   3.4087   3.4130   3.7689
     3.8844   3.8933   4.0906   4.2103   4.2175   4.4567   4.4673   5.6721

          k = 0.2357-0.2357-0.2357 (  5888 PWs)   bands (ev):

    -5.4485  -4.4123  -3.2738  -3.2685  -3.2632  -2.6966  -2.6919  -2.6870
    -0.4380  -0.4310  -0.4252  -0.3357  -0.3317  -0.3263   0.8538   2.5141
     2.5171   2.5200   3.4136   3.4189   3.4243   3.6338   3.6362   3.6383
     3.8479   4.4278   4.4306   4.4331   5.2172   5.2285   5.7736   5.7858

          k = 0.2357 0.2357 0.2357 (  5888 PWs)   bands (ev):

    -5.4485  -4.4122  -3.2737  -3.2685  -3.2632  -2.6967  -2.6918  -2.6871
    -0.4378  -0.4312  -0.4251  -0.3361  -0.3313  -0.3265   0.8538   2.5151
     2.5171   2.5191   3.4157   3.4190   3.4222   3.6326   3.6360   3.6395
     3.8478   4.4265   4.4305   4.4346   5.2172   5.2285   5.7736   5.7858

          k =-0.2357-0.2357 0.2357 (  5888 PWs)   bands (ev):

    -5.4486  -4.4131  -3.2722  -3.2684  -3.2624  -2.6958  -2.6917  -2.6864
    -0.4391  -0.4317  -0.4301  -0.3376  -0.3324  -0.3294   0.8581   2.5178
     2.5205   2.5225   3.4188   3.4229   3.4275   3.6325   3.6336   3.6370
     3.8525   4.4258   4.4270   4.4309   5.2178   5.2245   5.7736   5.7804

          k = 0.4714 0.0000 0.0000 (  5866 PWs)   bands (ev):

    -5.3237  -3.8802  -3.6745  -3.6674  -3.6656  -3.6584  -1.4761  -1.4760
    -1.4677  -1.4676   0.1786   0.1853   0.1859   0.1924   1.2437   2.4986
     2.4987   2.5037   2.5037   3.1293   3.1341   3.1385   3.1433   3.7744
     3.7745   4.2296   4.9163   4.9199   4.9210   4.9246   5.0208   5.0210

          k = 0.0000 0.0000 0.4714 (  5866 PWs)   bands (ev):

    -5.3238  -3.8802  -3.6733  -3.6696  -3.6633  -3.6595  -1.4766  -1.4759
    -1.4719  -1.4631   0.1779   0.1845   0.1867   0.1933   1.2436   2.4981
     2.5004   2.5020   2.5044   3.1304   3.1346   3.1379   3.1422   3.7720
     3.7768   4.2296   4.9108   4.9180   4.9228   4.9289   5.0181   5.0248

          k =-0.4714 0.0000 0.4714 (  5902 PWs)   bands (ev):

    -4.8502  -4.4980  -4.4895  -3.4864  -3.4796  -2.4838  -2.4714  -2.4649
    -0.6391  -0.6329  -0.5451   0.5885   0.5954   1.7108   1.7873   1.7946
     2.1385   2.1431   2.5253   2.5822   2.5861   3.4060   3.4103   3.7673
     3.8910   3.8995   4.0852   4.2147   4.2221   4.4509   4.4614   5.6623

          k =-0.0000 0.4714-0.4714 (  5902 PWs)   bands (ev):

    -4.8499  -4.4942  -4.4931  -3.4839  -3.4838  -2.4828  -2.4694  -2.4676
    -0.6337  -0.6336  -0.5491   0.5955   0.5956   1.7097   1.7850   1.7953
     2.1382   2.1382   2.5208   2.5837   2.5842   3.4094   3.4095   3.7680
     3.8921   3.8923   4.0881   4.2101   4.2223   4.4585   4.4596   5.6671

          k = 0.0000-0.4714-0.4714 (  5902 PWs)   bands (ev):

    -4.8499  -4.4937  -4.4936  -3.4839  -3.4838  -2.4810  -2.4727  -2.4661
    -0.6397  -0.6274  -0.5492   0.5955   0.5956   1.7099   1.7899   1.7901
     2.1375   2.1389   2.5209   2.5836   2.5842   3.4055   3.4132   3.7680
     3.8920   3.8924   4.0881   4.2160   4.2161   4.4591   4.4592   5.6671

          k =-0.4714 0.4714-0.0000 (  5902 PWs)   bands (ev):

    -4.8495  -4.4979  -4.4892  -3.4880  -3.4814  -2.4794  -2.4740  -2.4664
    -0.6343  -0.6282  -0.5531   0.5958   0.6027   1.7090   1.7853   1.7926
     2.1332   2.1380   2.5169   2.5815   2.5856   3.4088   3.4130   3.7688
     3.8843   3.8934   4.0907   4.2104   4.2176   4.4566   4.4674   5.6720

          k =-0.4714-0.4714 0.0000 (  5902 PWs)   bands (ev):

    -4.8502  -4.4980  -4.4895  -3.4864  -3.4796  -2.4842  -2.4718  -2.4642
    -0.6392  -0.6329  -0.5451   0.5885   0.5954   1.7107   1.7875   1.7946
     2.1385   2.1431   2.5255   2.5819   2.5861   3.4060   3.4103   3.7674
     3.8909   3.8997   4.0851   4.2146   4.2221   4.4508   4.4615   5.6623

     highest occupied level (ev):     6.2464

!    total energy              =    -126.80440070 Ry
     Harris-Foulkes estimate   =    -126.80440070 Ry
     estimated scf accuracy    <          7.6E-11 Ry

     The total energy is the sum of the following terms:

     one-electron contribution =      38.28227388 Ry
     hartree contribution      =       8.66139425 Ry
     xc contribution           =     -38.55020663 Ry
     ewald contribution        =    -135.19786220 Ry

     convergence has been achieved in   9 iterations

     Forces acting on atoms (cartesian axes, Ry/au):

     atom    1 type  1   force =     0.00092183   -0.00441411    0.00138481
     atom    2 type  1   force =     0.00088084    0.00135100   -0.00443662
     atom    3 type  1   force =     0.00005395   -0.00039793   -0.00005248
     atom    4 type  1   force =    -0.00025382   -0.00005188    0.00012051
     atom    5 type  1   force =    -0.00091165    0.00108726    0.00157391
     atom    6 type  1   force =    -0.00089088    0.00156115    0.00106430
     atom    7 type  1   force =    -0.00068858   -0.00071525    0.00136236
     atom    8 type  1   force =     0.00088926    0.00136234   -0.00123332
     atom    9 type  1   force =    -0.00025355    0.00012061   -0.00005297
     atom   10 type  1   force =     0.00005398   -0.00005222   -0.00039759
     atom   11 type  1   force =    -0.00005484    0.00022829   -0.00025238
     atom   12 type  1   force =    -0.00005317   -0.00025191    0.00022862
     atom   13 type  1   force =     0.00091337   -0.00125672    0.00137326
     atom   14 type  1   force =    -0.00071462    0.00137336   -0.00073839
     atom   15 type  1   force =     0.00005369    0.00010841   -0.00005237
     atom   16 type  1   force =     0.00005419   -0.00005240    0.00010834

     Total force =     0.008271     Total SCF correction =     0.000010


     Computing stress (Cartesian axis) and pressure

          total   stress  (Ry/bohr**3)                   (kbar)     P=        1.58
   0.00001075  -0.00000332   0.00000326            1.58       -0.49        0.48
  -0.00000332   0.00001071  -0.00000002           -0.49        1.57       -0.00
   0.00000326  -0.00000002   0.00001071            0.48       -0.00        1.57


     Writing output data file ./out/silicon.save/

     init_run     :      3.17s CPU      3.25s WALL (       1 calls)
     electrons    :     53.98s CPU     54.85s WALL (       1 calls)
     forces       :      0.38s CPU      0.39s WALL (       1 calls)
     stress       :      1.25s CPU      1.29s WALL (       1 calls)

     Called by init_run:
     wfcinit      :      3.02s CPU      3.09s WALL (       1 calls)
     potinit      :      0.03s CPU      0.05s WALL (       1 calls)
     hinit0       :      0.09s CPU      0.09s WALL (       1 calls)

     Called by electrons:
     c_bands      :     45.14s CPU     45.77s WALL (      10 calls)
     sum_band     :      8.23s CPU      8.43s WALL (      10 calls)
     v_of_rho     :      0.23s CPU      0.24s WALL (      10 calls)
     mix_rho      :      0.23s CPU      0.24s WALL (      10 calls)

     Called by c_bands:
     init_us_2    :      0.36s CPU      0.37s WALL (      92 calls)
     cegterg      :     42.63s CPU     43.23s WALL (      40 calls)

     Called by sum_band:

     Called by *egterg:
     h_psi        :     41.64s CPU     42.22s WALL (     143 calls)
     g_psi        :      0.12s CPU      0.12s WALL (      99 calls)
     cdiaghg      :      0.46s CPU      0.47s WALL (     135 calls)

     Called by h_psi:
     h_psi:calbec :      0.92s CPU      0.92s WALL (     143 calls)
     vloc_psi     :     39.73s CPU     40.25s WALL (     143 calls)
     add_vuspsi   :      0.86s CPU      0.87s WALL (     143 calls)

     General routines
     calbec       :      1.05s CPU      1.06s WALL (     163 calls)
     fft          :      0.28s CPU      0.28s WALL (      35 calls)
     ffts         :      0.07s CPU      0.07s WALL (      10 calls)
     fftw         :     41.45s CPU     42.07s WALL (    8730 calls)

     Parallel routines

     PWSCF        :     58.93s CPU     59.97s WALL


   This run was terminated on:  14:30:45   2Nov2020            

=------------------------------------------------------------------------------=
   JOB DONE.
=------------------------------------------------------------------------------=
