  422

    1
0.0000000000e+00 0.0000000000e+00 0.0000000000e+00
0.0000000000e+00 0.0000000000e+00 0.0000000000e+00
     1      1      1
 1  1  1     0.0000000000e+00
 1  1  2     0.0000000000e+00
 1  1  3     0.0000000000e+00
 1  2  1     0.0000000000e+00
 1  2  2     0.0000000000e+00
 1  2  3     3.2307333730e+01
 1  3  1     0.0000000000e+00
 1  3  2     3.2307333730e+01
 1  3  3     0.0000000000e+00
 2  1  1     0.0000000000e+00
 2  1  2     0.0000000000e+00
 2  1  3     3.2307333730e+01
 2  2  1     0.0000000000e+00
 2  2  2     0.0000000000e+00
 2  2  3     0.0000000000e+00
 2  3  1     3.2307333730e+01
 2  3  2     0.0000000000e+00
 2  3  3     0.0000000000e+00
 3  1  1     0.0000000000e+00
 3  1  2     3.2307333730e+01
 3  1  3     0.0000000000e+00
 3  2  1     3.2307333730e+01
 3  2  2     0.0000000000e+00
 3  2  3     0.0000000000e+00
 3  3  1     0.0000000000e+00
 3  3  2     0.0000000000e+00
 3  3  3     0.0000000000e+00

    2
0.0000000000e+00 0.0000000000e+00 0.0000000000e+00
0.0000000000e+00 0.0000000000e+00 0.0000000000e+00
     1      1      2
 1  1  1    -3.1303182211e+00
 1  1  2    -5.9487111947e+00
 1  1  3    -5.9487111947e+00
 1  2  1    -5.9803711586e+00
 1  2  2    -5.9803711586e+00
 1  2  3    -8.2838795067e+00
 1  3  1    -5.9803711586e+00
 1  3  2    -8.2838795067e+00
 1  3  3    -5.9803711586e+00
 2  1  1    -5.9803711586e+00
 2  1  2    -5.9803711586e+00
 2  1  3    -8.2838795067e+00
 2  2  1    -5.9487111947e+00
 2  2  2    -3.1303182211e+00
 2  2  3    -5.9487111947e+00
 2  3  1    -8.2838795067e+00
 2  3  2    -5.9803711586e+00
 2  3  3    -5.9803711586e+00
 3  1  1    -5.9803711586e+00
 3  1  2    -8.2838795067e+00
 3  1  3    -5.9803711586e+00
 3  2  1    -8.2838795067e+00
 3  2  2    -5.9803711586e+00
 3  2  3    -5.9803711586e+00
 3  3  1    -5.9487111947e+00
 3  3  2    -5.9487111947e+00
 3  3  3    -3.1303182211e+00

    3
0.0000000000e+00 0.0000000000e+00 0.0000000000e+00
2.6988037757e+00 0.0000000000e+00 -2.6988037757e+00
     1      1      1
 1  1  1     0.0000000000e+00
 1  1  2     3.4930236485e-01
 1  1  3     0.0000000000e+00
 1  2  1     1.2623419113e-01
 1  2  2     0.0000000000e+00
 1  2  3     2.8991145941e-01
 1  3  1     0.0000000000e+00
 1  3  2    -1.3744878840e-01
 1  3  3     0.0000000000e+00
 2  1  1     1.2623419113e-01
 2  1  2     0.0000000000e+00
 2  1  3     2.8991145941e-01
 2  2  1     0.0000000000e+00
 2  2  2    -1.2895696247e-01
 2  2  3     0.0000000000e+00
 2  3  1     2.8991145941e-01
 2  3  2     0.0000000000e+00
 2  3  3     1.2623419113e-01
 3  1  1     0.0000000000e+00
 3  1  2    -1.3744878840e-01
 3  1  3     0.0000000000e+00
 3  2  1     2.8991145941e-01
 3  2  2     0.0000000000e+00
 3  2  3     1.2623419113e-01
 3  3  1     0.0000000000e+00
 3  3  2     3.4930236485e-01
 3  3  3     0.0000000000e+00

    4
0.0000000000e+00 0.0000000000e+00 0.0000000000e+00
-2.6988037757e+00 0.0000000000e+00 2.6988037757e+00
     1      1      2
 1  1  1    -5.2707616864e-02
 1  1  2    -6.5838380650e-02
 1  1  3     6.5838380650e-02
 1  2  1    -4.1073142560e-02
 1  2  2     4.1073142560e-02
 1  2  3    -1.4140991010e-02
 1  3  1     4.1073142560e-02
 1  3  2    -1.4140991010e-02
 1  3  3     4.1073142560e-02
 2  1  1    -4.1073142560e-02
 2  1  2     4.1073142560e-02
 2  1  3    -1.4140991010e-02
 2  2  1     6.5838380650e-02
 2  2  2     5.2707616864e-02
 2  2  3     6.5838380650e-02
 2  3  1    -1.4140991010e-02
 2  3  2     4.1073142560e-02
 2  3  3    -4.1073142560e-02
 3  1  1     4.1073142560e-02
 3  1  2    -1.4140991010e-02
 3  1  3     4.1073142560e-02
 3  2  1    -1.4140991010e-02
 3  2  2     4.1073142560e-02
 3  2  3    -4.1073142560e-02
 3  3  1     6.5838380650e-02
 3  3  2    -6.5838380650e-02
 3  3  3    -5.2707616864e-02

    5
0.0000000000e+00 0.0000000000e+00 0.0000000000e+00
0.0000000000e+00 2.6988037757e+00 2.6988037757e+00
     1      1      1
 1  1  1     1.2895696247e-01
 1  1  2     0.0000000000e+00
 1  1  3     0.0000000000e+00
 1  2  1     0.0000000000e+00
 1  2  2    -1.2623419113e-01
 1  2  3     2.8991145941e-01
 1  3  1     0.0000000000e+00
 1  3  2     2.8991145941e-01
 1  3  3    -1.2623419113e-01
 2  1  1     0.0000000000e+00
 2  1  2    -1.2623419113e-01
 2  1  3     2.8991145941e-01
 2  2  1    -3.4930236485e-01
 2  2  2     0.0000000000e+00
 2  2  3     0.0000000000e+00
 2  3  1    -1.3744878840e-01
 2  3  2     0.0000000000e+00
 2  3  3     0.0000000000e+00
 3  1  1     0.0000000000e+00
 3  1  2     2.8991145941e-01
 3  1  3    -1.2623419113e-01
 3  2  1    -1.3744878840e-01
 3  2  2     0.0000000000e+00
 3  2  3     0.0000000000e+00
 3  3  1    -3.4930236485e-01
 3  3  2     0.0000000000e+00
 3  3  3     0.0000000000e+00

    6
0.0000000000e+00 0.0000000000e+00 0.0000000000e+00
0.0000000000e+00 -2.6988037757e+00 -2.6988037757e+00
     1      1      2
 1  1  1    -3.1303182211e+00
 1  1  2     5.9487111947e+00
 1  1  3     5.9487111947e+00
 1  2  1     5.9803711586e+00
 1  2  2    -5.9803711586e+00
 1  2  3    -8.2838795067e+00
 1  3  1     5.9803711586e+00
 1  3  2    -8.2838795067e+00
 1  3  3    -5.9803711586e+00
 2  1  1     5.9803711586e+00
 2  1  2    -5.9803711586e+00
 2  1  3    -8.2838795067e+00
 2  2  1    -5.9487111947e+00
 2  2  2     3.1303182211e+00
 2  2  3     5.9487111947e+00
 2  3  1    -8.2838795067e+00
 2  3  2     5.9803711586e+00
 2  3  3     5.9803711586e+00
 3  1  1     5.9803711586e+00
 3  1  2    -8.2838795067e+00
 3  1  3    -5.9803711586e+00
 3  2  1    -8.2838795067e+00
 3  2  2     5.9803711586e+00
 3  2  3     5.9803711586e+00
 3  3  1    -5.9487111947e+00
 3  3  2     5.9487111947e+00
 3  3  3     3.1303182211e+00

    7
0.0000000000e+00 0.0000000000e+00 0.0000000000e+00
2.6988037757e+00 2.6988037757e+00 0.0000000000e+00
     1      1      1
 1  1  1     0.0000000000e+00
 1  1  2     0.0000000000e+00
 1  1  3    -3.4930236485e-01
 1  2  1     0.0000000000e+00
 1  2  2     0.0000000000e+00
 1  2  3    -1.3744878840e-01
 1  3  1    -1.2623419113e-01
 1  3  2     2.8991145941e-01
 1  3  3     0.0000000000e+00
 2  1  1     0.0000000000e+00
 2  1  2     0.0000000000e+00
 2  1  3    -1.3744878840e-01
 2  2  1     0.0000000000e+00
 2  2  2     0.0000000000e+00
 2  2  3    -3.4930236485e-01
 2  3  1     2.8991145941e-01
 2  3  2    -1.2623419113e-01
 2  3  3     0.0000000000e+00
 3  1  1    -1.2623419113e-01
 3  1  2     2.8991145941e-01
 3  1  3     0.0000000000e+00
 3  2  1     2.8991145941e-01
 3  2  2    -1.2623419113e-01
 3  2  3     0.0000000000e+00
 3  3  1     0.0000000000e+00
 3  3  2     0.0000000000e+00
 3  3  3     1.2895696247e-01

    8
0.0000000000e+00 0.0000000000e+00 0.0000000000e+00
-2.6988037757e+00 -2.6988037757e+00 0.0000000000e+00
     1      1      2
 1  1  1     3.1303182211e+00
 1  1  2     5.9487111947e+00
 1  1  3    -5.9487111947e+00
 1  2  1     5.9803711586e+00
 1  2  2     5.9803711586e+00
 1  2  3    -8.2838795067e+00
 1  3  1    -5.9803711586e+00
 1  3  2    -8.2838795067e+00
 1  3  3     5.9803711586e+00
 2  1  1     5.9803711586e+00
 2  1  2     5.9803711586e+00
 2  1  3    -8.2838795067e+00
 2  2  1     5.9487111947e+00
 2  2  2     3.1303182211e+00
 2  2  3    -5.9487111947e+00
 2  3  1    -8.2838795067e+00
 2  3  2    -5.9803711586e+00
 2  3  3     5.9803711586e+00
 3  1  1    -5.9803711586e+00
 3  1  2    -8.2838795067e+00
 3  1  3     5.9803711586e+00
 3  2  1    -8.2838795067e+00
 3  2  2    -5.9803711586e+00
 3  2  3     5.9803711586e+00
 3  3  1     5.9487111947e+00
 3  3  2     5.9487111947e+00
 3  3  3    -3.1303182211e+00

    9
0.0000000000e+00 0.0000000000e+00 0.0000000000e+00
2.6988037757e+00 -2.6988037757e+00 0.0000000000e+00
     1      1      1
 1  1  1     0.0000000000e+00
 1  1  2     0.0000000000e+00
 1  1  3     3.4930236485e-01
 1  2  1     0.0000000000e+00
 1  2  2     0.0000000000e+00
 1  2  3    -1.3744878840e-01
 1  3  1     1.2623419113e-01
 1  3  2     2.8991145941e-01
 1  3  3     0.0000000000e+00
 2  1  1     0.0000000000e+00
 2  1  2     0.0000000000e+00
 2  1  3    -1.3744878840e-01
 2  2  1     0.0000000000e+00
 2  2  2     0.0000000000e+00
 2  2  3     3.4930236485e-01
 2  3  1     2.8991145941e-01
 2  3  2     1.2623419113e-01
 2  3  3     0.0000000000e+00
 3  1  1     1.2623419113e-01
 3  1  2     2.8991145941e-01
 3  1  3     0.0000000000e+00
 3  2  1     2.8991145941e-01
 3  2  2     1.2623419113e-01
 3  2  3     0.0000000000e+00
 3  3  1     0.0000000000e+00
 3  3  2     0.0000000000e+00
 3  3  3    -1.2895696247e-01

   10
0.0000000000e+00 0.0000000000e+00 0.0000000000e+00
-2.6988037757e+00 2.6988037757e+00 0.0000000000e+00
     1      1      2
 1  1  1    -5.2707616864e-02
 1  1  2     6.5838380650e-02
 1  1  3    -6.5838380650e-02
 1  2  1     4.1073142560e-02
 1  2  2     4.1073142560e-02
 1  2  3    -1.4140991010e-02
 1  3  1    -4.1073142560e-02
 1  3  2    -1.4140991010e-02
 1  3  3     4.1073142560e-02
 2  1  1     4.1073142560e-02
 2  1  2     4.1073142560e-02
 2  1  3    -1.4140991010e-02
 2  2  1     6.5838380650e-02
 2  2  2    -5.2707616864e-02
 2  2  3    -6.5838380650e-02
 2  3  1    -1.4140991010e-02
 2  3  2    -4.1073142560e-02
 2  3  3     4.1073142560e-02
 3  1  1    -4.1073142560e-02
 3  1  2    -1.4140991010e-02
 3  1  3     4.1073142560e-02
 3  2  1    -1.4140991010e-02
 3  2  2    -4.1073142560e-02
 3  2  3     4.1073142560e-02
 3  3  1     6.5838380650e-02
 3  3  2     6.5838380650e-02
 3  3  3     5.2707616864e-02

   11
0.0000000000e+00 0.0000000000e+00 0.0000000000e+00
0.0000000000e+00 2.6988037757e+00 -2.6988037757e+00
     1      1      1
 1  1  1    -1.2895696247e-01
 1  1  2     0.0000000000e+00
 1  1  3     0.0000000000e+00
 1  2  1     0.0000000000e+00
 1  2  2     1.2623419113e-01
 1  2  3     2.8991145941e-01
 1  3  1     0.0000000000e+00
 1  3  2     2.8991145941e-01
 1  3  3     1.2623419113e-01
 2  1  1     0.0000000000e+00
 2  1  2     1.2623419113e-01
 2  1  3     2.8991145941e-01
 2  2  1     3.4930236485e-01
 2  2  2     0.0000000000e+00
 2  2  3     0.0000000000e+00
 2  3  1    -1.3744878840e-01
 2  3  2     0.0000000000e+00
 2  3  3     0.0000000000e+00
 3  1  1     0.0000000000e+00
 3  1  2     2.8991145941e-01
 3  1  3     1.2623419113e-01
 3  2  1    -1.3744878840e-01
 3  2  2     0.0000000000e+00
 3  2  3     0.0000000000e+00
 3  3  1     3.4930236485e-01
 3  3  2     0.0000000000e+00
 3  3  3     0.0000000000e+00

   12
0.0000000000e+00 0.0000000000e+00 0.0000000000e+00
-5.3976075514e+00 -2.6988037757e+00 -2.6988037757e+00
     1      1      2
 1  1  1     5.2707616864e-02
 1  1  2     6.5838380650e-02
 1  1  3     6.5838380650e-02
 1  2  1     4.1073142560e-02
 1  2  2    -4.1073142560e-02
 1  2  3    -1.4140991010e-02
 1  3  1     4.1073142560e-02
 1  3  2    -1.4140991010e-02
 1  3  3    -4.1073142560e-02
 2  1  1     4.1073142560e-02
 2  1  2    -4.1073142560e-02
 2  1  3    -1.4140991010e-02
 2  2  1    -6.5838380650e-02
 2  2  2    -5.2707616864e-02
 2  2  3     6.5838380650e-02
 2  3  1    -1.4140991010e-02
 2  3  2     4.1073142560e-02
 2  3  3     4.1073142560e-02
 3  1  1     4.1073142560e-02
 3  1  2    -1.4140991010e-02
 3  1  3    -4.1073142560e-02
 3  2  1    -1.4140991010e-02
 3  2  2     4.1073142560e-02
 3  2  3     4.1073142560e-02
 3  3  1    -6.5838380650e-02
 3  3  2     6.5838380650e-02
 3  3  3    -5.2707616864e-02

   13
0.0000000000e+00 0.0000000000e+00 0.0000000000e+00
2.6988037757e+00 0.0000000000e+00 2.6988037757e+00
     1      1      1
 1  1  1     0.0000000000e+00
 1  1  2    -3.4930236485e-01
 1  1  3     0.0000000000e+00
 1  2  1    -1.2623419113e-01
 1  2  2     0.0000000000e+00
 1  2  3     2.8991145941e-01
 1  3  1     0.0000000000e+00
 1  3  2    -1.3744878840e-01
 1  3  3     0.0000000000e+00
 2  1  1    -1.2623419113e-01
 2  1  2     0.0000000000e+00
 2  1  3     2.8991145941e-01
 2  2  1     0.0000000000e+00
 2  2  2     1.2895696247e-01
 2  2  3     0.0000000000e+00
 2  3  1     2.8991145941e-01
 2  3  2     0.0000000000e+00
 2  3  3    -1.2623419113e-01
 3  1  1     0.0000000000e+00
 3  1  2    -1.3744878840e-01
 3  1  3     0.0000000000e+00
 3  2  1     2.8991145941e-01
 3  2  2     0.0000000000e+00
 3  2  3    -1.2623419113e-01
 3  3  1     0.0000000000e+00
 3  3  2    -3.4930236485e-01
 3  3  3     0.0000000000e+00

   14
0.0000000000e+00 0.0000000000e+00 0.0000000000e+00
-2.6988037757e+00 0.0000000000e+00 -2.6988037757e+00
     1      1      2
 1  1  1     3.1303182211e+00
 1  1  2    -5.9487111947e+00
 1  1  3     5.9487111947e+00
 1  2  1    -5.9803711586e+00
 1  2  2     5.9803711586e+00
 1  2  3    -8.2838795067e+00
 1  3  1     5.9803711586e+00
 1  3  2    -8.2838795067e+00
 1  3  3     5.9803711586e+00
 2  1  1    -5.9803711586e+00
 2  1  2     5.9803711586e+00
 2  1  3    -8.2838795067e+00
 2  2  1     5.9487111947e+00
 2  2  2    -3.1303182211e+00
 2  2  3     5.9487111947e+00
 2  3  1    -8.2838795067e+00
 2  3  2     5.9803711586e+00
 2  3  3    -5.9803711586e+00
 3  1  1     5.9803711586e+00
 3  1  2    -8.2838795067e+00
 3  1  3     5.9803711586e+00
 3  2  1    -8.2838795067e+00
 3  2  2     5.9803711586e+00
 3  2  3    -5.9803711586e+00
 3  3  1     5.9487111947e+00
 3  3  2    -5.9487111947e+00
 3  3  3     3.1303182211e+00

   15
0.0000000000e+00 0.0000000000e+00 0.0000000000e+00
-5.3976075514e+00 0.0000000000e+00 0.0000000000e+00
     1      1      2
 1  1  1     5.2707616864e-02
 1  1  2    -6.5838380650e-02
 1  1  3    -6.5838380650e-02
 1  2  1    -4.1073142560e-02
 1  2  2    -4.1073142560e-02
 1  2  3    -1.4140991010e-02
 1  3  1    -4.1073142560e-02
 1  3  2    -1.4140991010e-02
 1  3  3    -4.1073142560e-02
 2  1  1    -4.1073142560e-02
 2  1  2    -4.1073142560e-02
 2  1  3    -1.4140991010e-02
 2  2  1    -6.5838380650e-02
 2  2  2     5.2707616864e-02
 2  2  3    -6.5838380650e-02
 2  3  1    -1.4140991010e-02
 2  3  2    -4.1073142560e-02
 2  3  3    -4.1073142560e-02
 3  1  1    -4.1073142560e-02
 3  1  2    -1.4140991010e-02
 3  1  3    -4.1073142560e-02
 3  2  1    -1.4140991010e-02
 3  2  2    -4.1073142560e-02
 3  2  3    -4.1073142560e-02
 3  3  1    -6.5838380650e-02
 3  3  2    -6.5838380650e-02
 3  3  3     5.2707616864e-02

   16
0.0000000000e+00 0.0000000000e+00 0.0000000000e+00
0.0000000000e+00 0.0000000000e+00 0.0000000000e+00
     1      2      1
 1  1  1    -3.1303182211e+00
 1  1  2    -5.9803711586e+00
 1  1  3    -5.9803711586e+00
 1  2  1    -5.9487111947e+00
 1  2  2    -5.9803711586e+00
 1  2  3    -8.2838795067e+00
 1  3  1    -5.9487111947e+00
 1  3  2    -8.2838795067e+00
 1  3  3    -5.9803711586e+00
 2  1  1    -5.9803711586e+00
 2  1  2    -5.9487111947e+00
 2  1  3    -8.2838795067e+00
 2  2  1    -5.9803711586e+00
 2  2  2    -3.1303182211e+00
 2  2  3    -5.9803711586e+00
 2  3  1    -8.2838795067e+00
 2  3  2    -5.9487111947e+00
 2  3  3    -5.9803711586e+00
 3  1  1    -5.9803711586e+00
 3  1  2    -8.2838795067e+00
 3  1  3    -5.9487111947e+00
 3  2  1    -8.2838795067e+00
 3  2  2    -5.9803711586e+00
 3  2  3    -5.9487111947e+00
 3  3  1    -5.9803711586e+00
 3  3  2    -5.9803711586e+00
 3  3  3    -3.1303182211e+00

   17
0.0000000000e+00 0.0000000000e+00 0.0000000000e+00
0.0000000000e+00 0.0000000000e+00 0.0000000000e+00
     1      2      2
 1  1  1     3.1303182211e+00
 1  1  2     5.9803711586e+00
 1  1  3     5.9803711586e+00
 1  2  1     5.9803711586e+00
 1  2  2     5.9487111947e+00
 1  2  3     8.2838795067e+00
 1  3  1     5.9803711586e+00
 1  3  2     8.2838795067e+00
 1  3  3     5.9487111947e+00
 2  1  1     5.9487111947e+00
 2  1  2     5.9803711586e+00
 2  1  3     8.2838795067e+00
 2  2  1     5.9803711586e+00
 2  2  2     3.1303182211e+00
 2  2  3     5.9803711586e+00
 2  3  1     8.2838795067e+00
 2  3  2     5.9803711586e+00
 2  3  3     5.9487111947e+00
 3  1  1     5.9487111947e+00
 3  1  2     8.2838795067e+00
 3  1  3     5.9803711586e+00
 3  2  1     8.2838795067e+00
 3  2  2     5.9487111947e+00
 3  2  3     5.9803711586e+00
 3  3  1     5.9803711586e+00
 3  3  2     5.9803711586e+00
 3  3  3     3.1303182211e+00

   18
0.0000000000e+00 0.0000000000e+00 0.0000000000e+00
2.6988037757e+00 0.0000000000e+00 -2.6988037757e+00
     1      2      1
 1  1  1    -1.9926050278e-02
 1  1  2    -1.4961726992e-02
 1  1  3     1.1890344622e-02
 1  2  1    -2.5293482927e-02
 1  2  2    -1.7997624091e-02
 1  2  3    -8.3875975100e-02
 1  3  1     5.3897053513e-02
 1  3  2    -1.8375440863e-02
 1  3  3    -1.9283161112e-02
 2  1  1    -4.0414252547e-02
 2  1  2     1.4562338366e-02
 2  1  3     1.3907884869e-02
 2  2  1     1.1890344622e-02
 2  2  2     1.1529715938e-02
 2  2  3     1.1890344622e-02
 2  3  1     1.3907884869e-02
 2  3  2     1.4562338366e-02
 2  3  3    -4.0414252547e-02
 3  1  1    -1.9283161112e-02
 3  1  2    -1.8375440863e-02
 3  1  3     5.3897053513e-02
 3  2  1    -8.3875975100e-02
 3  2  2    -1.7997624091e-02
 3  2  3    -2.5293482927e-02
 3  3  1     1.1890344622e-02
 3  3  2    -1.4961726992e-02
 3  3  3    -1.9926050278e-02

   19
0.0000000000e+00 0.0000000000e+00 0.0000000000e+00
-2.6988037757e+00 0.0000000000e+00 2.6988037757e+00
     1      2      2
 1  1  1     1.9926050278e-02
 1  1  2     1.4961726992e-02
 1  1  3    -1.1890344622e-02
 1  2  1     4.0414252547e-02
 1  2  2    -1.4562338366e-02
 1  2  3    -1.3907884869e-02
 1  3  1     1.9283161112e-02
 1  3  2     1.8375440863e-02
 1  3  3    -5.3897053513e-02
 2  1  1     2.5293482927e-02
 2  1  2     1.7997624091e-02
 2  1  3     8.3875975100e-02
 2  2  1    -1.1890344622e-02
 2  2  2    -1.1529715938e-02
 2  2  3    -1.1890344622e-02
 2  3  1     8.3875975100e-02
 2  3  2     1.7997624091e-02
 2  3  3     2.5293482927e-02
 3  1  1    -5.3897053513e-02
 3  1  2     1.8375440863e-02
 3  1  3     1.9283161112e-02
 3  2  1    -1.3907884869e-02
 3  2  2    -1.4562338366e-02
 3  2  3     4.0414252547e-02
 3  3  1    -1.1890344622e-02
 3  3  2     1.4961726992e-02
 3  3  3     1.9926050278e-02

   20
0.0000000000e+00 0.0000000000e+00 0.0000000000e+00
0.0000000000e+00 2.6988037757e+00 2.6988037757e+00
     1      2      1
 1  1  1    -7.5845138175e-02
 1  1  2    -5.7849925403e-03
 1  1  3    -5.7849925403e-03
 1  2  1     0.0000000000e+00
 1  2  2     1.6669449346e-01
 1  2  3    -1.3951977856e-01
 1  3  1     0.0000000000e+00
 1  3  2    -1.3951977856e-01
 1  3  3     1.6669449346e-01
 2  1  1     5.7849925403e-03
 2  1  2    -4.4667237784e-03
 2  1  3    -2.8503256589e-01
 2  2  1     1.6669449346e-01
 2  2  2     0.0000000000e+00
 2  2  3     2.4425299122e-02
 2  3  1    -1.3951977856e-01
 2  3  2     0.0000000000e+00
 2  3  3    -2.4425299122e-02
 3  1  1     5.7849925403e-03
 3  1  2    -2.8503256589e-01
 3  1  3    -4.4667237784e-03
 3  2  1    -1.3951977856e-01
 3  2  2    -2.4425299122e-02
 3  2  3     0.0000000000e+00
 3  3  1     1.6669449346e-01
 3  3  2     2.4425299122e-02
 3  3  3     0.0000000000e+00

   21
0.0000000000e+00 0.0000000000e+00 0.0000000000e+00
0.0000000000e+00 -2.6988037757e+00 -2.6988037757e+00
     1      2      2
 1  1  1     7.5845138175e-02
 1  1  2     5.7849925403e-03
 1  1  3     5.7849925403e-03
 1  2  1    -5.7849925403e-03
 1  2  2     4.4667237784e-03
 1  2  3     2.8503256589e-01
 1  3  1    -5.7849925403e-03
 1  3  2     2.8503256589e-01
 1  3  3     4.4667237784e-03
 2  1  1     0.0000000000e+00
 2  1  2    -1.6669449346e-01
 2  1  3     1.3951977856e-01
 2  2  1    -1.6669449346e-01
 2  2  2     0.0000000000e+00
 2  2  3    -2.4425299122e-02
 2  3  1     1.3951977856e-01
 2  3  2     2.4425299122e-02
 2  3  3     0.0000000000e+00
 3  1  1     0.0000000000e+00
 3  1  2     1.3951977856e-01
 3  1  3    -1.6669449346e-01
 3  2  1     1.3951977856e-01
 3  2  2     0.0000000000e+00
 3  2  3     2.4425299122e-02
 3  3  1    -1.6669449346e-01
 3  3  2    -2.4425299122e-02
 3  3  3     0.0000000000e+00

   22
0.0000000000e+00 0.0000000000e+00 0.0000000000e+00
2.6988037757e+00 2.6988037757e+00 0.0000000000e+00
     1      2      1
 1  1  1     0.0000000000e+00
 1  1  2     2.4425299122e-02
 1  1  3     1.6669449346e-01
 1  2  1     0.0000000000e+00
 1  2  2    -2.4425299122e-02
 1  2  3    -1.3951977856e-01
 1  3  1    -4.4667237784e-03
 1  3  2    -2.8503256589e-01
 1  3  3     5.7849925403e-03
 2  1  1    -2.4425299122e-02
 2  1  2     0.0000000000e+00
 2  1  3    -1.3951977856e-01
 2  2  1     2.4425299122e-02
 2  2  2     0.0000000000e+00
 2  2  3     1.6669449346e-01
 2  3  1    -2.8503256589e-01
 2  3  2    -4.4667237784e-03
 2  3  3     5.7849925403e-03
 3  1  1     1.6669449346e-01
 3  1  2    -1.3951977856e-01
 3  1  3     0.0000000000e+00
 3  2  1    -1.3951977856e-01
 3  2  2     1.6669449346e-01
 3  2  3     0.0000000000e+00
 3  3  1    -5.7849925403e-03
 3  3  2    -5.7849925403e-03
 3  3  3    -7.5845138175e-02

   23
0.0000000000e+00 0.0000000000e+00 0.0000000000e+00
-2.6988037757e+00 -2.6988037757e+00 0.0000000000e+00
     1      2      2
 1  1  1     0.0000000000e+00
 1  1  2    -2.4425299122e-02
 1  1  3    -1.6669449346e-01
 1  2  1     2.4425299122e-02
 1  2  2     0.0000000000e+00
 1  2  3     1.3951977856e-01
 1  3  1    -1.6669449346e-01
 1  3  2     1.3951977856e-01
 1  3  3     0.0000000000e+00
 2  1  1     0.0000000000e+00
 2  1  2     2.4425299122e-02
 2  1  3     1.3951977856e-01
 2  2  1    -2.4425299122e-02
 2  2  2     0.0000000000e+00
 2  2  3    -1.6669449346e-01
 2  3  1     1.3951977856e-01
 2  3  2    -1.6669449346e-01
 2  3  3     0.0000000000e+00
 3  1  1     4.4667237784e-03
 3  1  2     2.8503256589e-01
 3  1  3    -5.7849925403e-03
 3  2  1     2.8503256589e-01
 3  2  2     4.4667237784e-03
 3  2  3    -5.7849925403e-03
 3  3  1     5.7849925403e-03
 3  3  2     5.7849925403e-03
 3  3  3     7.5845138175e-02

   24
0.0000000000e+00 0.0000000000e+00 0.0000000000e+00
2.6988037757e+00 -2.6988037757e+00 0.0000000000e+00
     1      2      1
 1  1  1    -1.9926050278e-02
 1  1  2     1.1890344622e-02
 1  1  3    -1.4961726992e-02
 1  2  1     5.3897053513e-02
 1  2  2    -1.9283161112e-02
 1  2  3    -1.8375440863e-02
 1  3  1    -2.5293482927e-02
 1  3  2    -8.3875975100e-02
 1  3  3    -1.7997624091e-02
 2  1  1    -1.9283161112e-02
 2  1  2     5.3897053513e-02
 2  1  3    -1.8375440863e-02
 2  2  1     1.1890344622e-02
 2  2  2    -1.9926050278e-02
 2  2  3    -1.4961726992e-02
 2  3  1    -8.3875975100e-02
 2  3  2    -2.5293482927e-02
 2  3  3    -1.7997624091e-02
 3  1  1    -4.0414252547e-02
 3  1  2     1.3907884869e-02
 3  1  3     1.4562338366e-02
 3  2  1     1.3907884869e-02
 3  2  2    -4.0414252547e-02
 3  2  3     1.4562338366e-02
 3  3  1     1.1890344622e-02
 3  3  2     1.1890344622e-02
 3  3  3     1.1529715938e-02

   25
0.0000000000e+00 0.0000000000e+00 0.0000000000e+00
-2.6988037757e+00 2.6988037757e+00 0.0000000000e+00
     1      2      2
 1  1  1     1.9926050278e-02
 1  1  2    -1.1890344622e-02
 1  1  3     1.4961726992e-02
 1  2  1     1.9283161112e-02
 1  2  2    -5.3897053513e-02
 1  2  3     1.8375440863e-02
 1  3  1     4.0414252547e-02
 1  3  2    -1.3907884869e-02
 1  3  3    -1.4562338366e-02
 2  1  1    -5.3897053513e-02
 2  1  2     1.9283161112e-02
 2  1  3     1.8375440863e-02
 2  2  1    -1.1890344622e-02
 2  2  2     1.9926050278e-02
 2  2  3     1.4961726992e-02
 2  3  1    -1.3907884869e-02
 2  3  2     4.0414252547e-02
 2  3  3    -1.4562338366e-02
 3  1  1     2.5293482927e-02
 3  1  2     8.3875975100e-02
 3  1  3     1.7997624091e-02
 3  2  1     8.3875975100e-02
 3  2  2     2.5293482927e-02
 3  2  3     1.7997624091e-02
 3  3  1    -1.1890344622e-02
 3  3  2    -1.1890344622e-02
 3  3  3    -1.1529715938e-02

   26
0.0000000000e+00 0.0000000000e+00 0.0000000000e+00
0.0000000000e+00 2.6988037757e+00 -2.6988037757e+00
     1      2      1
 1  1  1     1.1529715938e-02
 1  1  2     1.1890344622e-02
 1  1  3     1.1890344622e-02
 1  2  1     1.4562338366e-02
 1  2  2    -4.0414252547e-02
 1  2  3     1.3907884869e-02
 1  3  1     1.4562338366e-02
 1  3  2     1.3907884869e-02
 1  3  3    -4.0414252547e-02
 2  1  1    -1.7997624091e-02
 2  1  2    -2.5293482927e-02
 2  1  3    -8.3875975100e-02
 2  2  1    -1.4961726992e-02
 2  2  2    -1.9926050278e-02
 2  2  3     1.1890344622e-02
 2  3  1    -1.8375440863e-02
 2  3  2     5.3897053513e-02
 2  3  3    -1.9283161112e-02
 3  1  1    -1.7997624091e-02
 3  1  2    -8.3875975100e-02
 3  1  3    -2.5293482927e-02
 3  2  1    -1.8375440863e-02
 3  2  2    -1.9283161112e-02
 3  2  3     5.3897053513e-02
 3  3  1    -1.4961726992e-02
 3  3  2     1.1890344622e-02
 3  3  3    -1.9926050278e-02

   27
0.0000000000e+00 0.0000000000e+00 0.0000000000e+00
0.0000000000e+00 2.6988037757e+00 -2.6988037757e+00
     1      2      2
 1  1  1    -1.1529715938e-02
 1  1  2    -1.1890344622e-02
 1  1  3    -1.1890344622e-02
 1  2  1     1.7997624091e-02
 1  2  2     2.5293482927e-02
 1  2  3     8.3875975100e-02
 1  3  1     1.7997624091e-02
 1  3  2     8.3875975100e-02
 1  3  3     2.5293482927e-02
 2  1  1    -1.4562338366e-02
 2  1  2     4.0414252547e-02
 2  1  3    -1.3907884869e-02
 2  2  1     1.4961726992e-02
 2  2  2     1.9926050278e-02
 2  2  3    -1.1890344622e-02
 2  3  1     1.8375440863e-02
 2  3  2     1.9283161112e-02
 2  3  3    -5.3897053513e-02
 3  1  1    -1.4562338366e-02
 3  1  2    -1.3907884869e-02
 3  1  3     4.0414252547e-02
 3  2  1     1.8375440863e-02
 3  2  2    -5.3897053513e-02
 3  2  3     1.9283161112e-02
 3  3  1     1.4961726992e-02
 3  3  2    -1.1890344622e-02
 3  3  3     1.9926050278e-02

   28
0.0000000000e+00 0.0000000000e+00 0.0000000000e+00
2.6988037757e+00 0.0000000000e+00 2.6988037757e+00
     1      2      1
 1  1  1     0.0000000000e+00
 1  1  2     1.6669449346e-01
 1  1  3     2.4425299122e-02
 1  2  1    -4.4667237784e-03
 1  2  2     5.7849925403e-03
 1  2  3    -2.8503256589e-01
 1  3  1     0.0000000000e+00
 1  3  2    -1.3951977856e-01
 1  3  3    -2.4425299122e-02
 2  1  1     1.6669449346e-01
 2  1  2     0.0000000000e+00
 2  1  3    -1.3951977856e-01
 2  2  1    -5.7849925403e-03
 2  2  2    -7.5845138175e-02
 2  2  3    -5.7849925403e-03
 2  3  1    -1.3951977856e-01
 2  3  2     0.0000000000e+00
 2  3  3     1.6669449346e-01
 3  1  1    -2.4425299122e-02
 3  1  2    -1.3951977856e-01
 3  1  3     0.0000000000e+00
 3  2  1    -2.8503256589e-01
 3  2  2     5.7849925403e-03
 3  2  3    -4.4667237784e-03
 3  3  1     2.4425299122e-02
 3  3  2     1.6669449346e-01
 3  3  3     0.0000000000e+00

   29
0.0000000000e+00 0.0000000000e+00 0.0000000000e+00
-2.6988037757e+00 0.0000000000e+00 -2.6988037757e+00
     1      2      2
 1  1  1     0.0000000000e+00
 1  1  2    -1.6669449346e-01
 1  1  3    -2.4425299122e-02
 1  2  1    -1.6669449346e-01
 1  2  2     0.0000000000e+00
 1  2  3     1.3951977856e-01
 1  3  1     2.4425299122e-02
 1  3  2     1.3951977856e-01
 1  3  3     0.0000000000e+00
 2  1  1     4.4667237784e-03
 2  1  2    -5.7849925403e-03
 2  1  3     2.8503256589e-01
 2  2  1     5.7849925403e-03
 2  2  2     7.5845138175e-02
 2  2  3     5.7849925403e-03
 2  3  1     2.8503256589e-01
 2  3  2    -5.7849925403e-03
 2  3  3     4.4667237784e-03
 3  1  1     0.0000000000e+00
 3  1  2     1.3951977856e-01
 3  1  3     2.4425299122e-02
 3  2  1     1.3951977856e-01
 3  2  2     0.0000000000e+00
 3  2  3    -1.6669449346e-01
 3  3  1    -2.4425299122e-02
 3  3  2    -1.6669449346e-01
 3  3  3     0.0000000000e+00

   30
2.6988037757e+00 0.0000000000e+00 -2.6988037757e+00
0.0000000000e+00 0.0000000000e+00 0.0000000000e+00
     1      1      1
 1  1  1     0.0000000000e+00
 1  1  2     1.2623419113e-01
 1  1  3     0.0000000000e+00
 1  2  1     3.4930236485e-01
 1  2  2     0.0000000000e+00
 1  2  3    -1.3744878840e-01
 1  3  1     0.0000000000e+00
 1  3  2     2.8991145941e-01
 1  3  3     0.0000000000e+00
 2  1  1     1.2623419113e-01
 2  1  2     0.0000000000e+00
 2  1  3     2.8991145941e-01
 2  2  1     0.0000000000e+00
 2  2  2    -1.2895696247e-01
 2  2  3     0.0000000000e+00
 2  3  1     2.8991145941e-01
 2  3  2     0.0000000000e+00
 2  3  3     1.2623419113e-01
 3  1  1     0.0000000000e+00
 3  1  2     2.8991145941e-01
 3  1  3     0.0000000000e+00
 3  2  1    -1.3744878840e-01
 3  2  2     0.0000000000e+00
 3  2  3     3.4930236485e-01
 3  3  1     0.0000000000e+00
 3  3  2     1.2623419113e-01
 3  3  3     0.0000000000e+00

   31
2.6988037757e+00 0.0000000000e+00 -2.6988037757e+00
0.0000000000e+00 0.0000000000e+00 0.0000000000e+00
     1      1      2
 1  1  1    -1.9926050278e-02
 1  1  2    -2.5293482927e-02
 1  1  3     5.3897053513e-02
 1  2  1    -1.4961726992e-02
 1  2  2    -1.7997624091e-02
 1  2  3    -1.8375440863e-02
 1  3  1     1.1890344622e-02
 1  3  2    -8.3875975100e-02
 1  3  3    -1.9283161112e-02
 2  1  1    -4.0414252547e-02
 2  1  2     1.1890344622e-02
 2  1  3     1.3907884869e-02
 2  2  1     1.4562338366e-02
 2  2  2     1.1529715938e-02
 2  2  3     1.4562338366e-02
 2  3  1     1.3907884869e-02
 2  3  2     1.1890344622e-02
 2  3  3    -4.0414252547e-02
 3  1  1    -1.9283161112e-02
 3  1  2    -8.3875975100e-02
 3  1  3     1.1890344622e-02
 3  2  1    -1.8375440863e-02
 3  2  2    -1.7997624091e-02
 3  2  3    -1.4961726992e-02
 3  3  1     5.3897053513e-02
 3  3  2    -2.5293482927e-02
 3  3  3    -1.9926050278e-02

   32
-2.6988037757e+00 0.0000000000e+00 2.6988037757e+00
-2.6988037757e+00 0.0000000000e+00 2.6988037757e+00
     1      1      1
 1  1  1     0.0000000000e+00
 1  1  2     1.2623419113e-01
 1  1  3     0.0000000000e+00
 1  2  1     1.2623419113e-01
 1  2  2     0.0000000000e+00
 1  2  3     2.8991145941e-01
 1  3  1     0.0000000000e+00
 1  3  2     2.8991145941e-01
 1  3  3     0.0000000000e+00
 2  1  1     3.4930236485e-01
 2  1  2     0.0000000000e+00
 2  1  3    -1.3744878840e-01
 2  2  1     0.0000000000e+00
 2  2  2    -1.2895696247e-01
 2  2  3     0.0000000000e+00
 2  3  1    -1.3744878840e-01
 2  3  2     0.0000000000e+00
 2  3  3     3.4930236485e-01
 3  1  1     0.0000000000e+00
 3  1  2     2.8991145941e-01
 3  1  3     0.0000000000e+00
 3  2  1     2.8991145941e-01
 3  2  2     0.0000000000e+00