
     Program PHONON v.6.5 starts on  2Nov2020 at 13:56:13 

     This program is part of the open-source Quantum ESPRESSO suite
     for quantum simulation of materials; please cite
         "P. Giannozzi et al., J. Phys.:Condens. Matter 21 395502 (2009);
         "P. Giannozzi et al., J. Phys.:Condens. Matter 29 465901 (2017);
          URL http://www.quantum-espresso.org", 
     in publications or presentations arising from this work. More details at
     http://www.quantum-espresso.org/quote

     Parallel version (MPI), running on     4 processors

     MPI processes distributed on     1 nodes
     K-points division:     npool     =       4

     Reading xml data from directory:

     ./out/silicon.save/

     IMPORTANT: XC functional enforced from input :
     Exchange-correlation= PZ
                           (   1   1   0   0   0   0   0)
     Any further DFT definition will be discarded
     Please, verify this is what you really want


     G-vector sticks info
     --------------------
     sticks:   dense  smooth     PW     G-vecs:    dense   smooth      PW
     Sum         433     433    139                 5961     5961    1067

     Reading collected, re-writing distributed wavefunctions


     Dynamical matrices for ( 4, 4, 4)  uniform grid of q-points
     (   8 q-points):
       N         xq(1)         xq(2)         xq(3) 
       1   0.000000000   0.000000000   0.000000000
       2  -0.250000000   0.250000000  -0.250000000
       3   0.500000000  -0.500000000   0.500000000
       4   0.000000000   0.500000000   0.000000000
       5   0.750000000  -0.250000000   0.750000000
       6   0.500000000   0.000000000   0.500000000
       7   0.000000000  -1.000000000   0.000000000
       8  -0.500000000  -1.000000000   0.000000000

     Calculation of q =    0.0000000   0.0000000   0.0000000

     phonons of Si                                                              

     bravais-lattice index     =            2
     lattice parameter (alat)  =      10.2000  a.u.
     unit-cell volume          =     265.3020 (a.u.)^3
     number of atoms/cell      =            2
     number of atomic types    =            1
     kinetic-energy cut-off    =      30.0000  Ry
     charge density cut-off    =     120.0000  Ry
     convergence threshold     =      1.0E-14
     beta                      =       0.7000
     number of iterations used =            4
     Exchange-correlation= PZ
                           (   1   1   0   0   0   0   0)


     celldm(1)=   10.20000  celldm(2)=    0.00000  celldm(3)=    0.00000
     celldm(4)=    0.00000  celldm(5)=    0.00000  celldm(6)=    0.00000

     crystal axes: (cart. coord. in units of alat)
               a(1) = ( -0.5000  0.0000  0.5000 )  
               a(2) = (  0.0000  0.5000  0.5000 )  
               a(3) = ( -0.5000  0.5000  0.0000 )  

     reciprocal axes: (cart. coord. in units 2 pi/alat)
               b(1) = ( -1.0000 -1.0000  1.0000 )  
               b(2) = (  1.0000  1.0000  1.0000 )  
               b(3) = ( -1.0000  1.0000 -1.0000 )  


     Atoms inside the unit cell: 

     Cartesian axes

     site n.  atom      mass           positions (alat units)
        1     Si  28.0860   tau(    1) = (    0.00000    0.00000    0.00000  )
        2     Si  28.0860   tau(    2) = (    0.25000    0.25000    0.25000  )

     Computing dynamical matrix for 
                    q = (   0.0000000   0.0000000   0.0000000 )

     49 Sym.Ops. (with q -> -q+G )


     G cutoff =  316.2437  (   5961 G-vectors)     FFT grid: ( 32, 32, 32)
     number of k points=    16

     PseudoPot. # 1 for Si read from file:
     ../../pseudoPotentials/Si.pz-vbc.UPF
     MD5 check sum: 9f25e6ff280f3123e9b3a84715b2e9c9
     Pseudo is Norm-conserving, Zval =  4.0
     Generated by new atomic code, or converted to UPF format
     Using radial grid of  431 points,  2 beta functions with: 
                l(1) =   0
                l(2) =   1

     Mode symmetry, O_h (m-3m)  point group:


     Electric field:
     Dielectric constant
     Born effective charges in two ways 


     Atomic displacements:
     There are   2 irreducible representations

     Representation     1      3 modes -T_2g G_25' G_5+  To be done

     Representation     2      3 modes -T_1u G_15  G_4-  To be done



     Alpha used in Ewald sum =   1.3000
     PHONON       :      0.19s CPU      0.20s WALL


     Electric Fields Calculation

      iter #   1 total cpu time :     0.8 secs   av.it.:   6.8
      thresh= 1.000E-02 alpha_mix =  0.700 |ddv_scf|^2 =  2.254E-07

      iter #   2 total cpu time :     1.2 secs   av.it.:  10.4
      thresh= 4.748E-05 alpha_mix =  0.700 |ddv_scf|^2 =  8.868E-09

      iter #   3 total cpu time :     1.6 secs   av.it.:  10.2
      thresh= 9.417E-06 alpha_mix =  0.700 |ddv_scf|^2 =  1.048E-10

      iter #   4 total cpu time :     2.0 secs   av.it.:  10.4
      thresh= 1.024E-06 alpha_mix =  0.700 |ddv_scf|^2 =  4.674E-13

      iter #   5 total cpu time :     2.3 secs   av.it.:  10.3
      thresh= 6.837E-08 alpha_mix =  0.700 |ddv_scf|^2 =  4.242E-16

     End of electric fields calculation

          Dielectric constant in cartesian axis 

          (      16.292216090      -0.000000000      -0.000000000 )
          (      -0.000000000      16.292216090       0.000000000 )
          (      -0.000000000       0.000000000      16.292216090 )

          Effective charges (d Force / dE) in cartesian axis

           atom      1   Si 
      Ex  (       -0.31842       -0.00000       -0.00000 )
      Ey  (       -0.00000       -0.31842        0.00000 )
      Ez  (       -0.00000        0.00000       -0.31842 )
           atom      2   Si 
      Ex  (       -0.31842       -0.00000       -0.00000 )
      Ey  (       -0.00000       -0.31842       -0.00000 )
      Ez  (        0.00000        0.00000       -0.31842 )


     Representation #  1 modes #   1  2  3

     Self-consistent Calculation

      iter #   1 total cpu time :     2.7 secs   av.it.:   4.9
      thresh= 1.000E-02 alpha_mix =  0.700 |ddv_scf|^2 =  4.654E-08

      iter #   2 total cpu time :     3.1 secs   av.it.:  10.2
      thresh= 2.157E-05 alpha_mix =  0.700 |ddv_scf|^2 =  8.357E-10

      iter #   3 total cpu time :     3.5 secs   av.it.:  10.2
      thresh= 2.891E-06 alpha_mix =  0.700 |ddv_scf|^2 =  1.095E-11

      iter #   4 total cpu time :     3.9 secs   av.it.:   9.9
      thresh= 3.309E-07 alpha_mix =  0.700 |ddv_scf|^2 =  8.453E-15

     End of self-consistent calculation

     Convergence has been achieved 


     Representation #  2 modes #   4  5  6

     Self-consistent Calculation

      iter #   1 total cpu time :     4.3 secs   av.it.:   5.2
      thresh= 1.000E-02 alpha_mix =  0.700 |ddv_scf|^2 =  3.306E-08

      iter #   2 total cpu time :     4.7 secs   av.it.:  10.4
      thresh= 1.818E-05 alpha_mix =  0.700 |ddv_scf|^2 =  1.238E-09

      iter #   3 total cpu time :     5.2 secs   av.it.:  10.4
      thresh= 3.518E-06 alpha_mix =  0.700 |ddv_scf|^2 =  1.393E-11

      iter #   4 total cpu time :     5.6 secs   av.it.:  10.1
      thresh= 3.732E-07 alpha_mix =  0.700 |ddv_scf|^2 =  3.003E-14

      iter #   5 total cpu time :     6.0 secs   av.it.:  10.5
      thresh= 1.733E-08 alpha_mix =  0.700 |ddv_scf|^2 =  4.221E-16

     End of self-consistent calculation

     Convergence has been achieved 

     Number of q in the star =    1
     List of q in the star:
          1   0.000000000   0.000000000   0.000000000

          Dielectric constant in cartesian axis 

          (      16.292216090      -0.000000000      -0.000000000 )
          (      -0.000000000      16.292216090       0.000000000 )
          (      -0.000000000       0.000000000      16.292216090 )

          Effective charges (d Force / dE) in cartesian axis

           atom      1   Si 
      Ex  (       -0.31842       -0.00000       -0.00000 )
      Ey  (       -0.00000       -0.31842        0.00000 )
      Ez  (       -0.00000        0.00000       -0.31842 )
           atom      2   Si 
      Ex  (       -0.31842       -0.00000       -0.00000 )
      Ey  (       -0.00000       -0.31842       -0.00000 )
      Ez  (        0.00000        0.00000       -0.31842 )

          Effective charges (d P / du) in cartesian axis 

           atom      1   Si 
      Px  (       -0.31844       -0.00000       -0.00000 )
      Py  (       -0.00000       -0.31844        0.00000 )
      Pz  (       -0.00000        0.00000       -0.31844 )
           atom      2   Si 
      Px  (       -0.31844        0.00000       -0.00000 )
      Py  (        0.00000       -0.31844       -0.00000 )
      Pz  (       -0.00000       -0.00000       -0.31844 )

     Diagonalizing the dynamical matrix

     q = (    0.000000000   0.000000000   0.000000000 ) 

 **************************************************************************
     freq (    1) =      -0.109530 [THz] =      -3.653540 [cm-1]
     freq (    2) =      -0.109530 [THz] =      -3.653540 [cm-1]
     freq (    3) =      -0.109530 [THz] =      -3.653540 [cm-1]
     freq (    4) =      15.347675 [THz] =     511.943347 [cm-1]
     freq (    5) =      15.347675 [THz] =     511.943347 [cm-1]
     freq (    6) =      15.347675 [THz] =     511.943347 [cm-1]
 **************************************************************************

     Mode symmetry, O_h (m-3m)  point group:

     freq (  1 -  3) =         -3.7  [cm-1]   --> T_1u G_15  G_4- I  
     freq (  4 -  6) =        511.9  [cm-1]   --> T_2g G_25' G_5+ R  

     Calculation of q =   -0.2500000   0.2500000  -0.2500000

     Subspace diagonalization in iterative solution of the eigenvalue problem:
     a serial algorithm will be used


     G-vector sticks info
     --------------------
     sticks:   dense  smooth     PW     G-vecs:    dense   smooth      PW
     Sum         433     433    151                 5961     5961    1243


     Title: 
     phonons of Si                                                              


     bravais-lattice index     =            2
     lattice parameter (alat)  =      10.2000  a.u.
     unit-cell volume          =     265.3020 (a.u.)^3
     number of atoms/cell      =            2
     number of atomic types    =            1
     number of electrons       =         8.00
     number of Kohn-Sham states=            4
     kinetic-energy cutoff     =      30.0000  Ry
     charge density cutoff     =     120.0000  Ry
     Exchange-correlation= PZ
                           (   1   1   0   0   0   0   0)

     celldm(1)=  10.200000  celldm(2)=   0.000000  celldm(3)=   0.000000
     celldm(4)=   0.000000  celldm(5)=   0.000000  celldm(6)=   0.000000

     crystal axes: (cart. coord. in units of alat)
               a(1) = (  -0.500000   0.000000   0.500000 )  
               a(2) = (   0.000000   0.500000   0.500000 )  
               a(3) = (  -0.500000   0.500000   0.000000 )  

     reciprocal axes: (cart. coord. in units 2 pi/alat)
               b(1) = ( -1.000000 -1.000000  1.000000 )  
               b(2) = (  1.000000  1.000000  1.000000 )  
               b(3) = ( -1.000000  1.000000 -1.000000 )  


     PseudoPot. # 1 for Si read from file:
     ../../pseudoPotentials/Si.pz-vbc.UPF
     MD5 check sum: 9f25e6ff280f3123e9b3a84715b2e9c9
     Pseudo is Norm-conserving, Zval =  4.0
     Generated by new atomic code, or converted to UPF format
     Using radial grid of  431 points,  2 beta functions with: 
                l(1) =   0
                l(2) =   1

     atomic species   valence    mass     pseudopotential
        Si             4.00    28.08600     Si( 1.00)

     48 Sym. Ops., with inversion, found



   Cartesian axes

     site n.     atom                  positions (alat units)
         1           Si  tau(   1) = (   0.0000000   0.0000000   0.0000000  )
         2           Si  tau(   2) = (   0.2500000   0.2500000   0.2500000  )

     number of k points=   112

     Number of k-points >= 100: set verbosity='high' to print them.

     Dense  grid:     5961 G-vectors     FFT dimensions: (  32,  32,  32)

     Estimated max dynamical RAM per process >       3.56 MB

     Estimated total dynamical RAM >      14.26 MB

     The potential is recalculated from file :
     ./out/_ph0/silicon.save/charge-density

     Starting wfcs are    8 atomic wfcs

     Band Structure Calculation
     Davidson diagonalization with overlap

     ethr =  1.25E-10,  avg # of iterations = 11.5

     total cpu time spent up to now is        0.7 secs

     End of band structure calculation

     Number of k-points >= 100: set verbosity='high' to print the bands.

     highest occupied level (ev):     6.2376

     Writing output data file ./out/_ph0/silicon.save/

     phonons of Si                                                              

     bravais-lattice index     =            2
     lattice parameter (alat)  =      10.2000  a.u.
     unit-cell volume          =     265.3020 (a.u.)^3
     number of atoms/cell      =            2
     number of atomic types    =            1
     kinetic-energy cut-off    =      30.0000  Ry
     charge density cut-off    =     120.0000  Ry
     convergence threshold     =      1.0E-14
     beta                      =       0.7000
     number of iterations used =            4
     Exchange-correlation= PZ
                           (   1   1   0   0   0   0   0)


     celldm(1)=   10.20000  celldm(2)=    0.00000  celldm(3)=    0.00000
     celldm(4)=    0.00000  celldm(5)=    0.00000  celldm(6)=    0.00000

     crystal axes: (cart. coord. in units of alat)
               a(1) = ( -0.5000  0.0000  0.5000 )  
               a(2) = (  0.0000  0.5000  0.5000 )  
               a(3) = ( -0.5000  0.5000  0.0000 )  

     reciprocal axes: (cart. coord. in units 2 pi/alat)
               b(1) = ( -1.0000 -1.0000  1.0000 )  
               b(2) = (  1.0000  1.0000  1.0000 )  
               b(3) = ( -1.0000  1.0000 -1.0000 )  


     Atoms inside the unit cell: 

     Cartesian axes

     site n.  atom      mass           positions (alat units)
        1     Si  28.0860   tau(    1) = (    0.00000    0.00000    0.00000  )
        2     Si  28.0860   tau(    2) = (    0.25000    0.25000    0.25000  )

     Computing dynamical matrix for 
                    q = (  -0.2500000   0.2500000  -0.2500000 )

      6 Sym.Ops. (no q -> -q+G )


     G cutoff =  316.2437  (   5961 G-vectors)     FFT grid: ( 32, 32, 32)
     number of k points=   112

     PseudoPot. # 1 for Si read from file:
     ../../pseudoPotentials/Si.pz-vbc.UPF
     MD5 check sum: 9f25e6ff280f3123e9b3a84715b2e9c9
     Pseudo is Norm-conserving, Zval =  4.0
     Generated by new atomic code, or converted to UPF format
     Using radial grid of  431 points,  2 beta functions with: 
                l(1) =   0
                l(2) =   1

     Mode symmetry, C_3v (3m)   point group:


     Atomic displacements:
     There are   4 irreducible representations

     Representation     1      1 modes -A_1  L_1  To be done

     Representation     2      1 modes -A_1  L_1  To be done

     Representation     3      2 modes -E    L_3  To be done

     Representation     4      2 modes -E    L_3  To be done



     Alpha used in Ewald sum =   1.3000
     PHONON       :      6.60s CPU      6.82s WALL



     Representation #  1 mode #   1

     Self-consistent Calculation

      iter #   1 total cpu time :     7.1 secs   av.it.:   5.8
      thresh= 1.000E-02 alpha_mix =  0.700 |ddv_scf|^2 =  6.498E-04

      iter #   2 total cpu time :     7.3 secs   av.it.:   8.3
      thresh= 2.549E-03 alpha_mix =  0.700 |ddv_scf|^2 =  1.007E-02

      iter #   3 total cpu time :     7.6 secs   av.it.:   6.6
      thresh= 1.000E-02 alpha_mix =  0.700 |ddv_scf|^2 =  4.246E-07

      iter #   4 total cpu time :     7.9 secs   av.it.:   8.7
      thresh= 6.516E-05 alpha_mix =  0.700 |ddv_scf|^2 =  4.091E-08

      iter #   5 total cpu time :     8.2 secs   av.it.:   8.5
      thresh= 2.023E-05 alpha_mix =  0.700 |ddv_scf|^2 =  2.411E-10

      iter #   6 total cpu time :     8.5 secs   av.it.:   8.4
      thresh= 1.553E-06 alpha_mix =  0.700 |ddv_scf|^2 =  5.867E-10

      iter #   7 total cpu time :     8.8 secs   av.it.:   7.3
      thresh= 2.422E-06 alpha_mix =  0.700 |ddv_scf|^2 =  8.517E-12

      iter #   8 total cpu time :     9.1 secs   av.it.:   8.7
      thresh= 2.918E-07 alpha_mix =  0.700 |ddv_scf|^2 =  1.477E-13

      iter #   9 total cpu time :     9.4 secs   av.it.:   7.9
      thresh= 3.843E-08 alpha_mix =  0.700 |ddv_scf|^2 =  8.032E-15

     End of self-consistent calculation

     Convergence has been achieved 


     Representation #  2 mode #   2

     Self-consistent Calculation

      iter #   1 total cpu time :     9.7 secs   av.it.:   5.8
      thresh= 1.000E-02 alpha_mix =  0.700 |ddv_scf|^2 =  6.498E-04

      iter #   2 total cpu time :    10.0 secs   av.it.:   8.3
      thresh= 2.549E-03 alpha_mix =  0.700 |ddv_scf|^2 =  1.007E-02

      iter #   3 total cpu time :    10.2 secs   av.it.:   6.6
      thresh= 1.000E-02 alpha_mix =  0.700 |ddv_scf|^2 =  4.252E-07

      iter #   4 total cpu time :    10.6 secs   av.it.:   8.7
      thresh= 6.521E-05 alpha_mix =  0.700 |ddv_scf|^2 =  4.071E-08

      iter #   5 total cpu time :    10.9 secs   av.it.:   8.5
      thresh= 2.018E-05 alpha_mix =  0.700 |ddv_scf|^2 =  1.218E-10

      iter #   6 total cpu time :    11.2 secs   av.it.:   8.8
      thresh= 1.103E-06 alpha_mix =  0.700 |ddv_scf|^2 =  2.617E-10

      iter #   7 total cpu time :    11.5 secs   av.it.:   7.3
      thresh= 1.618E-06 alpha_mix =  0.700 |ddv_scf|^2 =  1.937E-11

      iter #   8 total cpu time :    12.0 secs   av.it.:   8.2
      thresh= 4.401E-07 alpha_mix =  0.700 |ddv_scf|^2 =  1.562E-13

      iter #   9 total cpu time :    12.4 secs   av.it.:   7.8
      thresh= 3.952E-08 alpha_mix =  0.700 |ddv_scf|^2 =  7.488E-15

     End of self-consistent calculation

     Convergence has been achieved 


     Representation #  3 modes #   3  4

     Self-consistent Calculation

      iter #   1 total cpu time :    12.8 secs   av.it.:   5.2
      thresh= 1.000E-02 alpha_mix =  0.700 |ddv_scf|^2 =  1.259E-07

      iter #   2 total cpu time :    13.5 secs   av.it.:  10.2
      thresh= 3.548E-05 alpha_mix =  0.700 |ddv_scf|^2 =  7.063E-09

      iter #   3 total cpu time :    14.2 secs   av.it.:  10.0
      thresh= 8.404E-06 alpha_mix =  0.700 |ddv_scf|^2 =  3.903E-11

      iter #   4 total cpu time :    14.9 secs   av.it.:  10.0
      thresh= 6.248E-07 alpha_mix =  0.700 |ddv_scf|^2 =  2.488E-12

      iter #   5 total cpu time :    15.6 secs   av.it.:   9.9
      thresh= 1.577E-07 alpha_mix =  0.700 |ddv_scf|^2 =  4.173E-15

     End of self-consistent calculation

     Convergence has been achieved 


     Representation #  4 modes #   5  6

     Self-consistent Calculation

      iter #   1 total cpu time :    16.2 secs   av.it.:   5.2
      thresh= 1.000E-02 alpha_mix =  0.700 |ddv_scf|^2 =  1.258E-07

      iter #   2 total cpu time :    17.2 secs   av.it.:  10.5
      thresh= 3.547E-05 alpha_mix =  0.700 |ddv_scf|^2 =  7.041E-09

      iter #   3 total cpu time :    18.6 secs   av.it.:  10.3
      thresh= 8.391E-06 alpha_mix =  0.700 |ddv_scf|^2 =  3.908E-11

      iter #   4 total cpu time :    19.5 secs   av.it.:  10.2
      thresh= 6.251E-07 alpha_mix =  0.700 |ddv_scf|^2 =  2.483E-12

      iter #   5 total cpu time :    20.5 secs   av.it.:  10.2
      thresh= 1.576E-07 alpha_mix =  0.700 |ddv_scf|^2 =  4.242E-15

     End of self-consistent calculation

     Convergence has been achieved 

     Number of q in the star =    8
     List of q in the star:
          1  -0.250000000   0.250000000  -0.250000000
          2   0.250000000  -0.250000000  -0.250000000
          3   0.250000000  -0.250000000   0.250000000
          4   0.250000000   0.250000000   0.250000000
          5  -0.250000000  -0.250000000  -0.250000000
          6  -0.250000000  -0.250000000   0.250000000
          7  -0.250000000   0.250000000   0.250000000
          8   0.250000000   0.250000000  -0.250000000

     Diagonalizing the dynamical matrix

     q = (   -0.250000000   0.250000000  -0.250000000 ) 

 **************************************************************************
     freq (    1) =       2.848222 [THz] =      95.006465 [cm-1]
     freq (    2) =       2.848222 [THz] =      95.006465 [cm-1]
     freq (    3) =       6.937580 [THz] =     231.412774 [cm-1]
     freq (    4) =      14.430544 [THz] =     481.351120 [cm-1]
     freq (    5) =      14.791456 [THz] =     493.389866 [cm-1]
     freq (    6) =      14.791456 [THz] =     493.389866 [cm-1]
 **************************************************************************

     Mode symmetry, C_3v (3m)   point group:

     freq (  1 -  2) =         95.0  [cm-1]   --> E    L_3           
     freq (  3 -  3) =        231.4  [cm-1]   --> A_1  L_1           
     freq (  4 -  4) =        481.4  [cm-1]   --> A_1  L_1           
     freq (  5 -  6) =        493.4  [cm-1]   --> E    L_3           

     Calculation of q =    0.5000000  -0.5000000   0.5000000

     G-vector sticks info
     --------------------
     sticks:   dense  smooth     PW     G-vecs:    dense   smooth      PW
     Sum         433     433    163                 5961     5961    1411


     Title: 
     phonons of Si                                                              


     bravais-lattice index     =            2
     lattice parameter (alat)  =      10.2000  a.u.
     unit-cell volume          =     265.3020 (a.u.)^3
     number of atoms/cell      =            2
     number of atomic types    =            1
     number of electrons       =         8.00
     number of Kohn-Sham states=            4
     kinetic-energy cutoff     =      30.0000  Ry
     charge density cutoff     =     120.0000  Ry
     Exchange-correlation= PZ
                           (   1   1   0   0   0   0   0)

     celldm(1)=  10.200000  celldm(2)=   0.000000  celldm(3)=   0.000000
     celldm(4)=   0.000000  celldm(5)=   0.000000  celldm(6)=   0.000000

     crystal axes: (cart. coord. in units of alat)
               a(1) = (  -0.500000   0.000000   0.500000 )  
               a(2) = (   0.000000   0.500000   0.500000 )  
               a(3) = (  -0.500000   0.500000   0.000000 )  

     reciprocal axes: (cart. coord. in units 2 pi/alat)
               b(1) = ( -1.000000 -1.000000  1.000000 )  
               b(2) = (  1.000000  1.000000  1.000000 )  
               b(3) = ( -1.000000  1.000000 -1.000000 )  


     PseudoPot. # 1 for Si read from file:
     ../../pseudoPotentials/Si.pz-vbc.UPF
     MD5 check sum: 9f25e6ff280f3123e9b3a84715b2e9c9
     Pseudo is Norm-conserving, Zval =  4.0
     Generated by new atomic code, or converted to UPF format
     Using radial grid of  431 points,  2 beta functions with: 
                l(1) =   0
                l(2) =   1

     atomic species   valence    mass     pseudopotential
        Si             4.00    28.08600     Si( 1.00)

     48 Sym. Ops., with inversion, found



   Cartesian axes

     site n.     atom                  positions (alat units)
         1           Si  tau(   1) = (   0.0000000   0.0000000   0.0000000  )
         2           Si  tau(   2) = (   0.2500000   0.2500000   0.2500000  )

     number of k points=    64
                       cart. coord. in units 2pi/alat
        k(    1) = (   0.0000000   0.0000000   0.0000000), wk =   0.0092593
        k(    2) = (   0.5000000  -0.5000000   0.5000000), wk =   0.0000000
        k(    3) = (  -0.1666667   0.1666667  -0.1666667), wk =   0.0185185
        k(    4) = (   0.3333333  -0.3333333   0.3333333), wk =   0.0000000
        k(    5) = (  -0.3333333   0.3333333  -0.3333333), wk =   0.0185185
        k(    6) = (   0.1666667  -0.1666667   0.1666667), wk =   0.0000000
        k(    7) = (   0.5000000  -0.5000000   0.5000000), wk =   0.0092593
        k(    8) = (   1.0000000  -1.0000000   1.0000000), wk =   0.0000000
        k(    9) = (   0.0000000   0.3333333   0.0000000), wk =   0.0555556
        k(   10) = (   0.5000000  -0.1666667   0.5000000), wk =   0.0000000
        k(   11) = (  -0.1666667   0.5000000  -0.1666667), wk =   0.0555556
        k(   12) = (   0.3333333   0.0000000   0.3333333), wk =   0.0000000
        k(   13) = (   0.6666667  -0.3333333   0.6666667), wk =   0.0555556
        k(   14) = (   1.1666667  -0.8333333   1.1666667), wk =   0.0000000
        k(   15) = (   0.5000000  -0.1666667   0.5000000), wk =   0.0555556
        k(   16) = (   1.0000000  -0.6666667   1.0000000), wk =   0.0000000
        k(   17) = (   0.3333333   0.0000000   0.3333333), wk =   0.0555556
        k(   18) = (   0.8333333  -0.5000000   0.8333333), wk =   0.0000000
        k(   19) = (   0.0000000   0.6666667   0.0000000), wk =   0.0555556
        k(   20) = (   0.5000000   0.1666667   0.5000000), wk =   0.0000000
        k(   21) = (   0.8333333  -0.1666667   0.8333333), wk =   0.0555556
        k(   22) = (   1.3333333  -0.6666667   1.3333333), wk =   0.0000000
        k(   23) = (   0.6666667  -0.0000000   0.6666667), wk =   0.0555556
        k(   24) = (   1.1666667  -0.5000000   1.1666667), wk =   0.0000000
        k(   25) = (   0.0000000  -1.0000000   0.0000000), wk =   0.0277778
        k(   26) = (   0.5000000  -1.5000000   0.5000000), wk =   0.0000000
        k(   27) = (   0.6666667  -0.3333333   1.0000000), wk =   0.1111111
        k(   28) = (   1.1666667  -0.8333333   1.5000000), wk =   0.0000000
        k(   29) = (   0.5000000  -0.1666667   0.8333333), wk =   0.0555556
        k(   30) = (   1.0000000  -0.6666667   1.3333333), wk =   0.0000000
        k(   31) = (  -0.3333333  -1.0000000   0.0000000), wk =   0.1111111
        k(   32) = (   0.1666667  -1.5000000   0.5000000), wk =   0.0000000
        k(   33) = (  -0.1666667  -0.1666667  -0.1666667), wk =   0.0555556
        k(   34) = (   0.3333333  -0.6666667   0.3333333), wk =   0.0000000
        k(   35) = (  -0.3333333  -0.3333333  -0.3333333), wk =   0.0555556
        k(   36) = (   0.1666667  -0.8333333   0.1666667), wk =   0.0000000
        k(   37) = (   0.5000000   0.5000000   0.5000000), wk =   0.0277778
        k(   38) = (   1.0000000   0.0000000   1.0000000), wk =   0.0000000
        k(   39) = (  -0.1666667  -0.5000000  -0.1666667), wk =   0.0555556
        k(   40) = (   0.3333333  -1.0000000   0.3333333), wk =   0.0000000
        k(   41) = (   0.1666667  -0.5000000  -0.1666667), wk =   0.1111111
        k(   42) = (   0.6666667  -1.0000000   0.3333333), wk =   0.0000000
        k(   43) = (   0.6666667   0.3333333   0.6666667), wk =   0.0555556
        k(   44) = (   1.1666667  -0.1666667   1.1666667), wk =   0.0000000
        k(   45) = (  -0.6666667   0.3333333   0.6666667), wk =   0.1111111
        k(   46) = (  -0.1666667  -0.1666667   1.1666667), wk =   0.0000000
        k(   47) = (   0.5000000   0.1666667   0.5000000), wk =   0.0555556
        k(   48) = (   1.0000000  -0.3333333   1.0000000), wk =   0.0000000
        k(   49) = (  -0.5000000   0.1666667   0.5000000), wk =   0.1111111
        k(   50) = (   0.0000000  -0.3333333   1.0000000), wk =   0.0000000
        k(   51) = (  -0.3333333   0.0000000   0.3333333), wk =   0.0555556
        k(   52) = (   0.1666667  -0.5000000   0.8333333), wk =   0.0000000
        k(   53) = (   0.8333333   0.1666667   0.8333333), wk =   0.0555556
        k(   54) = (   1.3333333  -0.3333333   1.3333333), wk =   0.0000000
        k(   55) = (  -0.8333333   0.1666667   0.8333333), wk =   0.1111111
        k(   56) = (  -0.3333333  -0.3333333   1.3333333), wk =   0.0000000
        k(   57) = (  -0.6666667   0.0000000   0.6666667), wk =   0.0555556
        k(   58) = (  -0.1666667  -0.5000000   1.1666667), wk =   0.0000000
        k(   59) = (   0.6666667   0.3333333   1.0000000), wk =   0.1111111
        k(   60) = (   1.1666667  -0.1666667   1.5000000), wk =   0.0000000
        k(   61) = (   0.5000000   0.1666667   0.8333333), wk =   0.1111111
        k(   62) = (   1.0000000  -0.3333333   1.3333333), wk =   0.0000000
        k(   63) = (  -0.8333333   0.1666667   0.5000000), wk =   0.0555556
        k(   64) = (  -0.3333333  -0.3333333   1.0000000), wk =   0.0000000

     Dense  grid:     5961 G-vectors     FFT dimensions: (  32,  32,  32)

     Estimated max dynamical RAM per process >       3.57 MB

     Estimated total dynamical RAM >      14.27 MB

     The potential is recalculated from file :
     ./out/_ph0/silicon.save/charge-density

     Starting wfcs are    8 atomic wfcs

     Band Structure Calculation
     Davidson diagonalization with overlap

     ethr =  1.25E-10,  avg # of iterations = 11.0

     total cpu time spent up to now is        1.4 secs

     End of band structure calculation

          k = 0.0000 0.0000 0.0000 (   725 PWs)   bands (ev):

    -5.8155   6.2376   6.2376   6.2376

          k = 0.5000-0.5000 0.5000 (   754 PWs)   bands (ev):

    -3.4235  -0.8241   5.0226   5.0226

          k =-0.1667 0.1667-0.1667 (   730 PWs)   bands (ev):

    -5.4484   3.8477   5.7796   5.7796

          k = 0.3333-0.3333 0.3333 (   751 PWs)   bands (ev):

    -4.4122   0.8538   5.2229   5.2229

          k =-0.3333 0.3333-0.3333 (   751 PWs)   bands (ev):

    -4.4122   0.8538   5.2229   5.2229

          k = 0.1667-0.1667 0.1667 (   730 PWs)   bands (ev):

    -5.4484   3.8477   5.7796   5.7796

          k = 0.5000-0.5000 0.5000 (   754 PWs)   bands (ev):

    -3.4235  -0.8241   5.0226   5.0226

          k = 1.0000-1.0000 1.0000 (   725 PWs)   bands (ev):

    -5.8155   6.2376   6.2376   6.2376

          k = 0.0000 0.3333 0.0000 (   737 PWs)   bands (ev):

    -5.3237   4.2296   5.0207   5.0207

          k = 0.5000-0.1667 0.5000 (   734 PWs)   bands (ev):

    -3.6665   0.1856   3.1363   4.9204

          k =-0.1667 0.5000-0.1667 (   742 PWs)   bands (ev):

    -4.4936   1.7900   4.2160   4.4590

          k = 0.3333 0.0000 0.3333 (   740 PWs)   bands (ev):

    -4.8497   2.5213   3.7682   5.6671

          k = 0.6667-0.3333 0.6667 (   732 PWs)   bands (ev):

    -3.2684  -0.4310   3.4190   4.4305

          k = 1.1667-0.8333 1.1667 (   730 PWs)   bands (ev):

    -5.4484   3.8477   5.7796   5.7796

          k = 0.5000-0.1667 0.5000 (   734 PWs)   bands (ev):

    -3.6665   0.1856   3.1363   4.9204

          k = 1.0000-0.6667 1.0000 (   737 PWs)   bands (ev):

    -5.3237   4.2296   5.0207   5.0207

          k = 0.3333 0.0000 0.3333 (   740 PWs)   bands (ev):

    -4.8497   2.5213   3.7682   5.6671

          k = 0.8333-0.5000 0.8333 (   742 PWs)   bands (ev):

    -4.4936   1.7900   4.2160   4.4590

          k = 0.0000 0.6667 0.0000 (   717 PWs)   bands (ev):

    -3.8799   1.2436   3.7744   3.7744

          k = 0.5000 0.1667 0.5000 (   734 PWs)   bands (ev):

    -3.6665   0.1856   3.1363   4.9204

          k = 0.8333-0.1667 0.8333 (   737 PWs)   bands (ev):

    -2.6919  -0.3317   2.5171   3.6361

          k = 1.3333-0.6667 1.3333 (   751 PWs)   bands (ev):

    -4.4122   0.8538   5.2229   5.2229

          k = 0.6667-0.0000 0.6667 (   730 PWs)   bands (ev):

    -2.4810  -0.5492   1.7102   4.0881

          k = 1.1667-0.5000 1.1667 (   742 PWs)   bands (ev):

    -4.4936   1.7900   4.2160   4.4590

          k = 0.0000-1.0000 0.0000 (   740 PWs)   bands (ev):

    -1.6023  -1.6023   3.3318   3.3318

          k = 0.5000-1.5000 0.5000 (   754 PWs)   bands (ev):

    -3.4235  -0.8241   5.0226   5.0226

          k = 0.6667-0.3333 1.0000 (   740 PWs)   bands (ev):

    -3.4838   0.5956   2.5837   3.8921

          k = 1.1667-0.8333 1.5000 (   742 PWs)   bands (ev):

    -4.4936   1.7900   4.2160   4.4590

          k = 0.5000-0.1667 0.8333 (   734 PWs)   bands (ev):

    -2.4695  -0.6336   2.1382   3.4096

          k = 1.0000-0.6667 1.3333 (   740 PWs)   bands (ev):

    -4.8497   2.5213   3.7682   5.6671

          k =-0.3333-1.0000 0.0000 (   738 PWs)   bands (ev):

    -1.4718  -1.4718   2.5013   2.5013

          k = 0.1667-1.5000 0.5000 (   734 PWs)   bands (ev):

    -3.6665   0.1856   3.1363   4.9204

          k =-0.1667-0.1667-0.1667 (   730 PWs)   bands (ev):

    -5.4484   3.8477   5.7796   5.7796

          k = 0.3333-0.6667 0.3333 (   732 PWs)   bands (ev):

    -3.2684  -0.4310   3.4190   4.4305

          k =-0.3333-0.3333-0.3333 (   751 PWs)   bands (ev):

    -4.4122   0.8538   5.2229   5.2229

          k = 0.1667-0.8333 0.1667 (   737 PWs)   bands (ev):

    -2.6919  -0.3317   2.5171   3.6361

          k = 0.5000 0.5000 0.5000 (   754 PWs)   bands (ev):

    -3.4235  -0.8241   5.0226   5.0226

          k = 1.0000 0.0000 1.0000 (   740 PWs)   bands (ev):

    -1.6023  -1.6023   3.3318   3.3318

          k =-0.1667-0.5000-0.1667 (   742 PWs)   bands (ev):

    -4.4936   1.7900   4.2160   4.4590

          k = 0.3333-1.0000 0.3333 (   730 PWs)   bands (ev):

    -2.4810  -0.5492   1.7102   4.0881

          k = 0.1667-0.5000-0.1667 (   742 PWs)   bands (ev):

    -4.4936   1.7900   4.2160   4.4590

          k = 0.6667-1.0000 0.3333 (   740 PWs)   bands (ev):

    -3.4838   0.5956   2.5837   3.8921

          k = 0.6667 0.3333 0.6667 (   732 PWs)   bands (ev):

    -3.2684  -0.4310   3.4190   4.4305

          k = 1.1667-0.1667 1.1667 (   737 PWs)   bands (ev):

    -2.6919  -0.3317   2.5171   3.6361

          k =-0.6667 0.3333 0.6667 (   732 PWs)   bands (ev):

    -3.2684  -0.4310   3.4190   4.4305

          k =-0.1667-0.1667 1.1667 (   737 PWs)   bands (ev):

    -2.6919  -0.3317   2.5171   3.6361

          k = 0.5000 0.1667 0.5000 (   734 PWs)   bands (ev):

    -3.6665   0.1856   3.1363   4.9204

          k = 1.0000-0.3333 1.0000 (   717 PWs)   bands (ev):

    -3.8799   1.2436   3.7744   3.7744

          k =-0.5000 0.1667 0.5000 (   734 PWs)   bands (ev):

    -3.6665   0.1856   3.1363   4.9204

          k = 0.0000-0.3333 1.0000 (   738 PWs)   bands (ev):

    -1.4718  -1.4718   2.5013   2.5013

          k =-0.3333 0.0000 0.3333 (   740 PWs)   bands (ev):

    -4.8497   2.5213   3.7682   5.6671

          k = 0.1667-0.5000 0.8333 (   734 PWs)   bands (ev):

    -2.4695  -0.6336   2.1382   3.4096

          k = 0.8333 0.1667 0.8333 (   737 PWs)   bands (ev):

    -2.6919  -0.3317   2.5171   3.6361

          k = 1.3333-0.3333 1.3333 (   732 PWs)   bands (ev):

    -3.2684  -0.4310   3.4190   4.4305

          k =-0.8333 0.1667 0.8333 (   737 PWs)   bands (ev):

    -2.6919  -0.3317   2.5171   3.6361

          k =-0.3333-0.3333 1.3333 (   732 PWs)   bands (ev):

    -3.2684  -0.4310   3.4190   4.4305

          k =-0.6667 0.0000 0.6667 (   730 PWs)   bands (ev):

    -2.4810  -0.5492   1.7102   4.0881

          k =-0.1667-0.5000 1.1667 (   734 PWs)   bands (ev):

    -2.4695  -0.6336   2.1382   3.4096

          k = 0.6667 0.3333 1.0000 (   740 PWs)   bands (ev):

    -3.4838   0.5956   2.5837   3.8921

          k = 1.1667-0.1667 1.5000 (   734 PWs)   bands (ev):

    -2.4695  -0.6336   2.1382   3.4096

          k = 0.5000 0.1667 0.8333 (   734 PWs)   bands (ev):

    -2.4695  -0.6336   2.1382   3.4096

          k = 1.0000-0.3333 1.3333 (   740 PWs)   bands (ev):

    -3.4838   0.5956   2.5837   3.8921

          k =-0.8333 0.1667 0.5000 (   734 PWs)   bands (ev):

    -2.4695  -0.6336   2.1382   3.4096

          k =-0.3333-0.3333 1.0000 (   730 PWs)   bands (ev):

    -2.4810  -0.5492   1.7102   4.0881

     highest occupied level (ev):     6.2376

     Writing output data file ./out/_ph0/silicon.save/

     phonons of Si                                                              

     bravais-lattice index     =            2
     lattice parameter (alat)  =      10.2000  a.u.
     unit-cell volume          =     265.3020 (a.u.)^3
     number of atoms/cell      =            2
     number of atomic types    =            1
     kinetic-energy cut-off    =      30.0000  Ry
     charge density cut-off    =     120.0000  Ry
     convergence threshold     =      1.0E-14
     beta                      =       0.7000
     number of iterations used =            4
     Exchange-correlation= PZ
                           (   1   1   0   0   0   0   0)


     celldm(1)=   10.20000  celldm(2)=    0.00000  celldm(3)=    0.00000
     celldm(4)=    0.00000  celldm(5)=    0.00000  celldm(6)=    0.00000

     crystal axes: (cart. coord. in units of alat)
               a(1) = ( -0.5000  0.0000  0.5000 )  
               a(2) = (  0.0000  0.5000  0.5000 )  
               a(3) = ( -0.5000  0.5000  0.0000 )  

     reciprocal axes: (cart. coord. in units 2 pi/alat)
               b(1) = ( -1.0000 -1.0000  1.0000 )  
               b(2) = (  1.0000  1.0000  1.0000 )  
               b(3) = ( -1.0000  1.0000 -1.0000 )  


     Atoms inside the unit cell: 

     Cartesian axes

     site n.  atom      mass           positions (alat units)
        1     Si  28.0860   tau(    1) = (    0.00000    0.00000    0.00000  )
        2     Si  28.0860   tau(    2) = (    0.25000    0.25000    0.25000  )

     Computing dynamical matrix for 
                    q = (   0.5000000  -0.5000000   0.5000000 )

     13 Sym.Ops. (with q -> -q+G )


     G cutoff =  316.2437  (   5961 G-vectors)     FFT grid: ( 32, 32, 32)
     number of k points=    64

     PseudoPot. # 1 for Si read from file:
     ../../pseudoPotentials/Si.pz-vbc.UPF
     MD5 check sum: 9f25e6ff280f3123e9b3a84715b2e9c9
     Pseudo is Norm-conserving, Zval =  4.0
     Generated by new atomic code, or converted to UPF format
     Using radial grid of  431 points,  2 beta functions with: 
                l(1) =   0
                l(2) =   1


     Atomic displacements:
     There are   4 irreducible representations

     Representation     1      1 modes -  To be done

     Representation     2      1 modes -  To be done

     Representation     3      2 modes -  To be done

     Representation     4      2 modes -  To be done



     Alpha used in Ewald sum =   1.3000
     PHONON       :     20.59s CPU     21.20s WALL



     Representation #  1 mode #   1

     Self-consistent Calculation

      iter #   1 total cpu time :    21.4 secs   av.it.:   5.0
      thresh= 1.000E-02 alpha_mix =  0.700 |ddv_scf|^2 =  5.764E-06

      iter #   2 total cpu time :    21.7 secs   av.it.:   8.6
      thresh= 2.401E-04 alpha_mix =  0.700 |ddv_scf|^2 =  4.793E-06

      iter #   3 total cpu time :    21.9 secs   av.it.:   8.1
      thresh= 2.189E-04 alpha_mix =  0.700 |ddv_scf|^2 =  5.076E-10

      iter #   4 total cpu time :    22.2 secs   av.it.:   8.3
      thresh= 2.253E-06 alpha_mix =  0.700 |ddv_scf|^2 =  1.060E-11

      iter #   5 total cpu time :    22.5 secs   av.it.:   8.3
      thresh= 3.256E-07 alpha_mix =  0.700 |ddv_scf|^2 =  8.413E-14

      iter #   6 total cpu time :    22.8 secs   av.it.:   8.2
      thresh= 2.900E-08 alpha_mix =  0.700 |ddv_scf|^2 =  1.130E-15

     End of self-consistent calculation

     Convergence has been achieved 


     Representation #  2 mode #   2

     Self-consistent Calculation

      iter #   1 total cpu time :    23.0 secs   av.it.:   5.8
      thresh= 1.000E-02 alpha_mix =  0.700 |ddv_scf|^2 =  9.731E-05

      iter #   2 total cpu time :    23.3 secs   av.it.:   8.9
      thresh= 9.865E-04 alpha_mix =  0.700 |ddv_scf|^2 =  3.169E-04

      iter #   3 total cpu time :    23.5 secs   av.it.:   7.8
      thresh= 1.780E-03 alpha_mix =  0.700 |ddv_scf|^2 =  9.095E-09

      iter #   4 total cpu time :    23.9 secs   av.it.:   9.0
      thresh= 9.537E-06 alpha_mix =  0.700 |ddv_scf|^2 =  2.424E-10

      iter #   5 total cpu time :    24.3 secs   av.it.:   9.1
      thresh= 1.557E-06 alpha_mix =  0.700 |ddv_scf|^2 =  1.880E-11

      iter #   6 total cpu time :    24.6 secs   av.it.:   8.5
      thresh= 4.336E-07 alpha_mix =  0.700 |ddv_scf|^2 =  1.424E-14

      iter #   7 total cpu time :    24.8 secs   av.it.:   8.8
      thresh= 1.193E-08 alpha_mix =  0.700 |ddv_scf|^2 =  1.471E-15

     End of self-consistent calculation

     Convergence has been achieved 


     Representation #  3 modes #   3  4

     Self-consistent Calculation

      iter #   1 total cpu time :    25.2 secs   av.it.:   5.2
      thresh= 1.000E-02 alpha_mix =  0.700 |ddv_scf|^2 =  2.832E-07

      iter #   2 total cpu time :    25.8 secs   av.it.:  10.1
      thresh= 5.322E-05 alpha_mix =  0.700 |ddv_scf|^2 =  2.434E-08

      iter #   3 total cpu time :    26.4 secs   av.it.:   9.8
      thresh= 1.560E-05 alpha_mix =  0.700 |ddv_scf|^2 =  3.611E-11

      iter #   4 total cpu time :    26.9 secs   av.it.:   9.6
      thresh= 6.009E-07 alpha_mix =  0.700 |ddv_scf|^2 =  1.042E-13

      iter #   5 total cpu time :    27.5 secs   av.it.:   9.9
      thresh= 3.228E-08 alpha_mix =  0.700 |ddv_scf|^2 =  4.960E-16

     End of self-consistent calculation

     Convergence has been achieved 


     Representation #  4 modes #   5  6

     Self-consistent Calculation

      iter #   1 total cpu time :    27.9 secs   av.it.:   4.8
      thresh= 1.000E-02 alpha_mix =  0.700 |ddv_scf|^2 =  3.270E-08

      iter #   2 total cpu time :    28.5 secs   av.it.:  10.1
      thresh= 1.808E-05 alpha_mix =  0.700 |ddv_scf|^2 =  6.529E-10

      iter #   3 total cpu time :    29.0 secs   av.it.:  10.0
      thresh= 2.555E-06 alpha_mix =  0.700 |ddv_scf|^2 =  2.517E-11

      iter #   4 total cpu time :    29.6 secs   av.it.:   9.9
      thresh= 5.017E-07 alpha_mix =  0.700 |ddv_scf|^2 =  3.993E-14

      iter #   5 total cpu time :    30.2 secs   av.it.:  10.2
      thresh= 1.998E-08 alpha_mix =  0.700 |ddv_scf|^2 =  5.053E-16

     End of self-consistent calculation

     Convergence has been achieved 

     Number of q in the star =    4
     List of q in the star:
          1   0.500000000  -0.500000000   0.500000000
          2   0.500000000   0.500000000   0.500000000
          3  -0.500000000   0.500000000   0.500000000
          4   0.500000000   0.500000000  -0.500000000

     Diagonalizing the dynamical matrix

     q = (    0.500000000  -0.500000000   0.500000000 ) 

 **************************************************************************
     freq (    1) =       3.161940 [THz] =     105.470955 [cm-1]
     freq (    2) =       3.161940 [THz] =     105.470955 [cm-1]
     freq (    3) =      11.225148 [THz] =     374.430638 [cm-1]
     freq (    4) =      12.270632 [THz] =     409.304224 [cm-1]
     freq (    5) =      14.591980 [THz] =     486.736060 [cm-1]
     freq (    6) =      14.591980 [THz] =     486.736060 [cm-1]
 **************************************************************************

     Calculation of q =    0.0000000   0.5000000   0.0000000

     G-vector sticks info
     --------------------
     sticks:   dense  smooth     PW     G-vecs:    dense   smooth      PW
     Sum         433     433    151                 5961     5961    1243


     Title: 
     phonons of Si                                                              


     bravais-lattice index     =            2
     lattice parameter (alat)  =      10.2000  a.u.
     unit-cell volume          =     265.3020 (a.u.)^3
     number of atoms/cell      =            2
     number of atomic types    =            1
     number of electrons       =         8.00
     number of Kohn-Sham states=            4
     kinetic-energy cutoff     =      30.0000  Ry
     charge density cutoff     =     120.0000  Ry
     Exchange-correlation= PZ
                           (   1   1   0   0   0   0   0)

     celldm(1)=  10.200000  celldm(2)=   0.000000  celldm(3)=   0.000000
     celldm(4)=   0.000000  celldm(5)=   0.000000  celldm(6)=   0.000000

     crystal axes: (cart. coord. in units of alat)
               a(1) = (  -0.500000   0.000000   0.500000 )  
               a(2) = (   0.000000   0.500000   0.500000 )  
               a(3) = (  -0.500000   0.500000   0.000000 )  

     reciprocal axes: (cart. coord. in units 2 pi/alat)
               b(1) = ( -1.000000 -1.000000  1.000000 )  
               b(2) = (  1.000000  1.000000  1.000000 )  
               b(3) = ( -1.000000  1.000000 -1.000000 )  


     PseudoPot. # 1 for Si read from file:
     ../../pseudoPotentials/Si.pz-vbc.UPF
     MD5 check sum: 9f25e6ff280f3123e9b3a84715b2e9c9
     Pseudo is Norm-conserving, Zval =  4.0
     Generated by new atomic code, or converted to UPF format
     Using radial grid of  431 points,  2 beta functions with: 
                l(1) =   0
                l(2) =   1

     atomic species   valence    mass     pseudopotential
        Si             4.00    28.08600     Si( 1.00)

     48 Sym. Ops., with inversion, found



   Cartesian axes

     site n.     atom                  positions (alat units)
         1           Si  tau(   1) = (   0.0000000   0.0000000   0.0000000  )
         2           Si  tau(   2) = (   0.2500000   0.2500000   0.2500000  )

     number of k points=    96
                       cart. coord. in units 2pi/alat
        k(    1) = (   0.0000000   0.0000000   0.0000000), wk =   0.0092593
        k(    2) = (   0.0000000   0.5000000   0.0000000), wk =   0.0000000
        k(    3) = (  -0.1666667   0.1666667  -0.1666667), wk =   0.0370370
        k(    4) = (  -0.1666667   0.6666667  -0.1666667), wk =   0.0000000
        k(    5) = (  -0.3333333   0.3333333  -0.3333333), wk =   0.0370370
        k(    6) = (  -0.3333333   0.8333333  -0.3333333), wk =   0.0000000
        k(    7) = (   0.5000000  -0.5000000   0.5000000), wk =   0.0370370
        k(    8) = (   0.5000000   0.0000000   0.5000000), wk =   0.0000000
        k(    9) = (   0.0000000   0.3333333   0.0000000), wk =   0.0092593
        k(   10) = (   0.0000000   0.8333333   0.0000000), wk =   0.0000000
        k(   11) = (  -0.1666667   0.5000000  -0.1666667), wk =   0.0370370
        k(   12) = (  -0.1666667   1.0000000  -0.1666667), wk =   0.0000000
        k(   13) = (   0.6666667  -0.3333333   0.6666667), wk =   0.0370370
        k(   14) = (   0.6666667   0.1666667   0.6666667), wk =   0.0000000
        k(   15) = (   0.5000000  -0.1666667   0.5000000), wk =   0.0370370
        k(   16) = (   0.5000000   0.3333333   0.5000000), wk =   0.0000000
        k(   17) = (   0.3333333   0.0000000   0.3333333), wk =   0.0370370
        k(   18) = (   0.3333333   0.5000000   0.3333333), wk =   0.0000000
        k(   19) = (   0.0000000   0.6666667   0.0000000), wk =   0.0092593
        k(   20) = (   0.0000000   1.1666667   0.0000000), wk =   0.0000000
        k(   21) = (   0.8333333  -0.1666667   0.8333333), wk =   0.0370370
        k(   22) = (   0.8333333   0.3333333   0.8333333), wk =   0.0000000
        k(   23) = (   0.6666667  -0.0000000   0.6666667), wk =   0.0370370
        k(   24) = (   0.6666667   0.5000000   0.6666667), wk =   0.0000000
        k(   25) = (   0.0000000  -1.0000000   0.0000000), wk =   0.0092593
        k(   26) = (   0.0000000  -0.5000000   0.0000000), wk =   0.0000000
        k(   27) = (   0.6666667  -0.3333333   1.0000000), wk =   0.0370370
        k(   28) = (   0.6666667   0.1666667   1.0000000), wk =   0.0000000
        k(   29) = (   0.5000000  -0.1666667   0.8333333), wk =   0.0740741
        k(   30) = (   0.5000000   0.3333333   0.8333333), wk =   0.0000000
        k(   31) = (  -0.3333333  -1.0000000   0.0000000), wk =   0.0370370
        k(   32) = (  -0.3333333  -0.5000000   0.0000000), wk =   0.0000000
        k(   33) = (   0.1666667  -0.1666667   0.1666667), wk =   0.0370370
        k(   34) = (   0.1666667   0.3333333   0.1666667), wk =   0.0000000
        k(   35) = (   0.3333333  -0.3333333   0.3333333), wk =   0.0370370
        k(   36) = (   0.3333333   0.1666667   0.3333333), wk =   0.0000000
        k(   37) = (   0.0000000  -0.3333333   0.0000000), wk =   0.0092593
        k(   38) = (   0.0000000   0.1666667   0.0000000), wk =   0.0000000
        k(   39) = (   0.3333333   0.0000000   0.0000000), wk =   0.0370370
        k(   40) = (   0.3333333   0.5000000   0.0000000), wk =   0.0000000
        k(   41) = (   0.1666667  -0.5000000   0.1666667), wk =   0.0370370
        k(   42) = (   0.1666667   0.0000000   0.1666667), wk =   0.0000000
        k(   43) = (   0.5000000  -0.1666667   0.1666667), wk =   0.0740741
        k(   44) = (   0.5000000   0.3333333   0.1666667), wk =   0.0000000
        k(   45) = (   0.5000000   0.1666667   0.1666667), wk =   0.0740741
        k(   46) = (   0.5000000   0.6666667   0.1666667), wk =   0.0000000
        k(   47) = (  -0.6666667   0.3333333  -0.6666667), wk =   0.0370370
        k(   48) = (  -0.6666667   0.8333333  -0.6666667), wk =   0.0000000
        k(   49) = (  -0.3333333   0.6666667  -0.6666667), wk =   0.0740741
        k(   50) = (  -0.3333333   1.1666667  -0.6666667), wk =   0.0000000
        k(   51) = (  -0.3333333  -0.6666667  -0.6666667), wk =   0.0740741
        k(   52) = (  -0.3333333  -0.1666667  -0.6666667), wk =   0.0000000
        k(   53) = (  -0.5000000   0.1666667  -0.5000000), wk =   0.0370370
        k(   54) = (  -0.5000000   0.6666667  -0.5000000), wk =   0.0000000
        k(   55) = (  -0.1666667   0.5000000  -0.5000000), wk =   0.0740741
        k(   56) = (  -0.1666667   1.0000000  -0.5000000), wk =   0.0000000
        k(   57) = (  -0.1666667  -0.5000000  -0.5000000), wk =   0.0740741
        k(   58) = (  -0.1666667   0.0000000  -0.5000000), wk =   0.0000000
        k(   59) = (   0.0000000   0.3333333  -0.3333333), wk =   0.0370370
        k(   60) = (   0.0000000   0.8333333  -0.3333333), wk =   0.0000000
        k(   61) = (   0.0000000  -0.3333333  -0.3333333), wk =   0.0370370
        k(   62) = (   0.0000000   0.1666667  -0.3333333), wk =   0.0000000
        k(   63) = (   0.0000000  -0.6666667   0.0000000), wk =   0.0092593
        k(   64) = (   0.0000000  -0.1666667   0.0000000), wk =   0.0000000
        k(   65) = (   0.6666667   0.0000000   0.0000000), wk =   0.0370370
        k(   66) = (   0.6666667   0.5000000   0.0000000), wk =   0.0000000
        k(   67) = (  -0.8333333   0.1666667  -0.8333333), wk =   0.0370370
        k(   68) = (  -0.8333333   0.6666667  -0.8333333), wk =   0.0000000
        k(   69) = (  -0.1666667   0.8333333  -0.8333333), wk =   0.0740741
        k(   70) = (  -0.1666667   1.3333333  -0.8333333), wk =   0.0000000
        k(   71) = (  -0.1666667  -0.8333333  -0.8333333), wk =   0.0740741
        k(   72) = (  -0.1666667  -0.3333333  -0.8333333), wk =   0.0000000
        k(   73) = (   0.0000000   0.6666667  -0.6666667), wk =   0.0370370
        k(   74) = (   0.0000000   1.1666667  -0.6666667), wk =   0.0000000
        k(   75) = (   0.0000000  -0.6666667  -0.6666667), wk =   0.0370370
        k(   76) = (   0.0000000  -0.1666667  -0.6666667), wk =   0.0000000
        k(   77) = (  -1.0000000   0.0000000   0.0000000), wk =   0.0185185
        k(   78) = (  -1.0000000   0.5000000   0.0000000), wk =   0.0000000
        k(   79) = (  -1.0000000   0.3333333  -0.6666667), wk =   0.0370370
        k(   80) = (  -1.0000000   0.8333333  -0.6666667), wk =   0.0000000
        k(   81) = (  -0.3333333   0.6666667  -1.0000000), wk =   0.0370370
        k(   82) = (  -0.3333333   1.1666667  -1.0000000), wk =   0.0000000
        k(   83) = (  -0.3333333   1.0000000  -0.6666667), wk =   0.0740741
        k(   84) = (  -0.3333333   1.5000000  -0.6666667), wk =   0.0000000
        k(   85) = (   1.0000000  -0.6666667   0.3333333), wk =   0.0370370
        k(   86) = (   1.0000000  -0.1666667   0.3333333), wk =   0.0000000
        k(   87) = (  -0.8333333   0.1666667  -0.5000000), wk =   0.0740741
        k(   88) = (  -0.8333333   0.6666667  -0.5000000), wk =   0.0000000
        k(   89) = (  -0.1666667   0.5000000  -0.8333333), wk =   0.0740741
        k(   90) = (  -0.1666667   1.0000000  -0.8333333), wk =   0.0000000
        k(   91) = (  -1.0000000  -0.3333333   0.0000000), wk =   0.0185185
        k(   92) = (  -1.0000000   0.1666667   0.0000000), wk =   0.0000000
        k(   93) = (  -1.0000000   0.0000000   0.3333333), wk =   0.0370370
        k(   94) = (  -1.0000000   0.5000000   0.3333333), wk =   0.0000000
        k(   95) = (   0.0000000   0.3333333   1.0000000), wk =   0.0185185
        k(   96) = (   0.0000000   0.8333333   1.0000000), wk =   0.0000000

     Dense  grid:     5961 G-vectors     FFT dimensions: (  32,  32,  32)

     Estimated max dynamical RAM per process >       3.57 MB

     Estimated total dynamical RAM >      14.26 MB

     The potential is recalculated from file :
     ./out/_ph0/silicon.save/charge-density

     Starting wfcs are    8 atomic wfcs

     Band Structure Calculation
     Davidson diagonalization with overlap

     ethr =  1.25E-10,  avg # of iterations = 11.4

     total cpu time spent up to now is        2.5 secs

     End of band structure calculation

          k = 0.0000 0.0000 0.0000 (   725 PWs)   bands (ev):

    -5.8155   6.2376   6.2376   6.2376

          k = 0.0000 0.5000 0.0000 (   729 PWs)   bands (ev):

    -4.7160   2.7493   4.3115   4.3115

          k =-0.1667 0.1667-0.1667 (   730 PWs)   bands (ev):

    -5.4484   3.8477   5.7796   5.7796

          k =-0.1667 0.6667-0.1667 (   738 PWs)   bands (ev):

    -3.6845   0.7786   3.1878   3.9523

          k =-0.3333 0.3333-0.3333 (   751 PWs)   bands (ev):

    -4.4122   0.8538   5.2229   5.2229

          k =-0.3333 0.8333-0.3333 (   735 PWs)   bands (ev):

    -2.7045  -0.6035   2.2578   4.1766

          k = 0.5000-0.5000 0.5000 (   754 PWs)   bands (ev):

    -3.4235  -0.8241   5.0226   5.0226

          k = 0.5000 0.0000 0.5000 (   742 PWs)   bands (ev):

    -3.7325   0.7488   2.3949   4.8888

          k = 0.0000 0.3333 0.0000 (   737 PWs)   bands (ev):

    -5.3237   4.2296   5.0207   5.0207

          k = 0.0000 0.8333 0.0000 (   745 PWs)   bands (ev):

    -2.8332  -0.2263   3.4434   3.4434

          k =-0.1667 0.5000-0.1667 (   742 PWs)   bands (ev):

    -4.4936   1.7900   4.2160   4.4590

          k =-0.1667 1.0000-0.1667 (   738 PWs)   bands (ev):

    -1.7345  -1.3379   2.2951   3.5289

          k = 0.6667-0.3333 0.6667 (   732 PWs)   bands (ev):

    -3.2684  -0.4310   3.4190   4.4305

          k = 0.6667 0.1667 0.6667 (   735 PWs)   bands (ev):

    -2.7045  -0.6035   2.2578   4.1766

          k = 0.5000-0.1667 0.5000 (   734 PWs)   bands (ev):

    -3.6665   0.1856   3.1363   4.9204

          k = 0.5000 0.3333 0.5000 (   740 PWs)   bands (ev):

    -3.5141  -0.5294   4.3353   4.9873

          k = 0.3333 0.0000 0.3333 (   740 PWs)   bands (ev):

    -4.8497   2.5213   3.7682   5.6671

          k = 0.3333 0.5000 0.3333 (   740 PWs)   bands (ev):

    -3.8980   0.0798   4.6433   4.8079

          k = 0.0000 0.6667 0.0000 (   717 PWs)   bands (ev):

    -3.8799   1.2436   3.7744   3.7744

          k = 0.0000 1.1667 0.0000 (   745 PWs)   bands (ev):

    -2.8332  -0.2263   3.4434   3.4434

          k = 0.8333-0.1667 0.8333 (   737 PWs)   bands (ev):

    -2.6919  -0.3317   2.5171   3.6361

          k = 0.8333 0.3333 0.8333 (   738 PWs)   bands (ev):

    -3.6845   0.7786   3.1878   3.9523

          k = 0.6667-0.0000 0.6667 (   730 PWs)   bands (ev):

    -2.4810  -0.5492   1.7102   4.0881

          k = 0.6667 0.5000 0.6667 (   740 PWs)   bands (ev):

    -3.8980   0.0798   4.6433   4.8079

          k = 0.0000-1.0000 0.0000 (   740 PWs)   bands (ev):

    -1.6023  -1.6023   3.3318   3.3318

          k = 0.0000-0.5000 0.0000 (   729 PWs)   bands (ev):

    -4.7160   2.7493   4.3115   4.3115

          k = 0.6667-0.3333 1.0000 (   740 PWs)   bands (ev):

    -3.4838   0.5956   2.5837   3.8921

          k = 0.6667 0.1667 1.0000 (   737 PWs)   bands (ev):

    -2.5297  -0.4051   2.3776   3.0095

          k = 0.5000-0.1667 0.8333 (   734 PWs)   bands (ev):

    -2.4695  -0.6336   2.1382   3.4096

          k = 0.5000 0.3333 0.8333 (   737 PWs)   bands (ev):

    -3.0441  -0.3534   2.5818   4.2261

          k =-0.3333-1.0000 0.0000 (   738 PWs)   bands (ev):

    -1.4718  -1.4718   2.5013   2.5013

          k =-0.3333-0.5000 0.0000 (   744 PWs)   bands (ev):

    -4.2695   1.5490   3.0664   4.9442

          k = 0.1667-0.1667 0.1667 (   730 PWs)   bands (ev):

    -5.4484   3.8477   5.7796   5.7796

          k = 0.1667 0.3333 0.1667 (   741 PWs)   bands (ev):

    -5.0870   2.7933   5.1098   5.3020

          k = 0.3333-0.3333 0.3333 (   751 PWs)   bands (ev):

    -4.4122   0.8538   5.2229   5.2229

          k = 0.3333 0.1667 0.3333 (   744 PWs)   bands (ev):

    -4.7385   1.8070   4.5193   5.5469

          k = 0.0000-0.3333 0.0000 (   737 PWs)   bands (ev):

    -5.3237   4.2296   5.0207   5.0207

          k = 0.0000 0.1667 0.0000 (   733 PWs)   bands (ev):

    -5.6921   5.5613   5.7978   5.7978

          k = 0.3333 0.0000 0.0000 (   737 PWs)   bands (ev):

    -5.3237   4.2296   5.0207   5.0207

          k = 0.3333 0.5000 0.0000 (   744 PWs)   bands (ev):

    -4.2695   1.5490   3.0664   4.9442

          k = 0.1667-0.5000 0.1667 (   742 PWs)   bands (ev):

    -4.4936   1.7900   4.2160   4.4590

          k = 0.1667 0.0000 0.1667 (   739 PWs)   bands (ev):

    -5.5697   4.6547   5.3526   6.1195

          k = 0.5000-0.1667 0.1667 (   742 PWs)   bands (ev):

    -4.4936   1.7900   4.2160   4.4590

          k = 0.5000 0.3333 0.1667 (   744 PWs)   bands (ev):

    -4.1723   0.9333   3.7616   4.9082

          k = 0.5000 0.1667 0.1667 (   742 PWs)   bands (ev):

    -4.4936   1.7900   4.2160   4.4590

          k = 0.5000 0.6667 0.1667 (   737 PWs)   bands (ev):

    -3.0441  -0.3534   2.5818   4.2261

          k =-0.6667 0.3333-0.6667 (   732 PWs)   bands (ev):

    -3.2684  -0.4310   3.4190   4.4305

          k =-0.6667 0.8333-0.6667 (   744 PWs)   bands (ev):

    -4.7385   1.8070   4.5193   5.5469

          k =-0.3333 0.6667-0.6667 (   732 PWs)   bands (ev):

    -3.2684  -0.4310   3.4190   4.4305

          k =-0.3333 1.1667-0.6667 (   735 PWs)   bands (ev):

    -3.4187   0.1834   2.9549   4.0672

          k =-0.3333-0.6667-0.6667 (   732 PWs)   bands (ev):

    -3.2684  -0.4310   3.4190   4.4305

          k =-0.3333-0.1667-0.6667 (   735 PWs)   bands (ev):

    -3.4187   0.1834   2.9549   4.0672

          k =-0.5000 0.1667-0.5000 (   734 PWs)   bands (ev):

    -3.6665   0.1856   3.1363   4.9204

          k =-0.5000 0.6667-0.5000 (   740 PWs)   bands (ev):

    -3.5141  -0.5294   4.3353   4.9873

          k =-0.1667 0.5000-0.5000 (   734 PWs)   bands (ev):

    -3.6665   0.1856   3.1363   4.9204

          k =-0.1667 1.0000-0.5000 (   730 PWs)   bands (ev):

    -2.2261  -0.6889   1.9198   3.0832

          k =-0.1667-0.5000-0.5000 (   734 PWs)   bands (ev):

    -3.6665   0.1856   3.1363   4.9204

          k =-0.1667 0.0000-0.5000 (   736 PWs)   bands (ev):

    -4.6031   2.3319   3.8565   4.5837

          k = 0.0000 0.3333-0.3333 (   740 PWs)   bands (ev):

    -4.8497   2.5213   3.7682   5.6671

          k = 0.0000 0.8333-0.3333 (   737 PWs)   bands (ev):

    -2.5297  -0.4051   2.3776   3.0095

          k = 0.0000-0.3333-0.3333 (   740 PWs)   bands (ev):

    -4.8497   2.5213   3.7682   5.6671

          k = 0.0000 0.1667-0.3333 (   738 PWs)   bands (ev):

    -5.2044   3.5199   4.5659   5.5249

          k = 0.0000-0.6667 0.0000 (   717 PWs)   bands (ev):

    -3.8799   1.2436   3.7744   3.7744

          k = 0.0000-0.1667 0.0000 (   733 PWs)   bands (ev):

    -5.6921   5.5613   5.7978   5.7978

          k = 0.6667 0.0000 0.0000 (   717 PWs)   bands (ev):

    -3.8799   1.2436   3.7744   3.7744

          k = 0.6667 0.5000 0.0000 (   734 PWs)   bands (ev):

    -3.0287   0.0106   1.9838   4.1184

          k =-0.8333 0.1667-0.8333 (   737 PWs)   bands (ev):

    -2.6919  -0.3317   2.5171   3.6361

          k =-0.8333 0.6667-0.8333 (   741 PWs)   bands (ev):

    -5.0870   2.7933   5.1098   5.3020

          k =-0.1667 0.8333-0.8333 (   737 PWs)   bands (ev):

    -2.6919  -0.3317   2.5171   3.6361

          k =-0.1667 1.3333-0.8333 (   730 PWs)   bands (ev):

    -2.5522  -0.5167   2.1955   3.5600

          k =-0.1667-0.8333-0.8333 (   737 PWs)   bands (ev):

    -2.6919  -0.3317   2.5171   3.6361

          k =-0.1667-0.3333-0.8333 (   730 PWs)   bands (ev):

    -2.5522  -0.5167   2.1955   3.5600

          k = 0.0000 0.6667-0.6667 (   730 PWs)   bands (ev):

    -2.4810  -0.5492   1.7102   4.0881

          k = 0.0000 1.1667-0.6667 (   727 PWs)   bands (ev):

    -1.9405  -1.0339   1.8748   3.4042

          k = 0.0000-0.6667-0.6667 (   730 PWs)   bands (ev):

    -2.4810  -0.5492   1.7102   4.0881

          k = 0.0000-0.1667-0.6667 (   731 PWs)   bands (ev):

    -3.7785   1.0643   3.3365   3.7761

          k =-1.0000 0.0000 0.0000 (   740 PWs)   bands (ev):

    -1.6023  -1.6023   3.3318   3.3318

          k =-1.0000 0.5000 0.0000 (   724 PWs)   bands (ev):

    -1.4234  -1.4234   2.2839   2.2839

          k =-1.0000 0.3333-0.6667 (   740 PWs)   bands (ev):

    -3.4838   0.5956   2.5837   3.8921

          k =-1.0000 0.8333-0.6667 (   738 PWs)   bands (ev):

    -5.2044   3.5199   4.5659   5.5249

          k =-0.3333 0.6667-1.0000 (   740 PWs)   bands (ev):

    -3.4838   0.5956   2.5837   3.8921

          k =-0.3333 1.1667-1.0000 (   731 PWs)   bands (ev):

    -3.7785   1.0643   3.3365   3.7761

          k =-0.3333 1.0000-0.6667 (   740 PWs)   bands (ev):

    -3.4838   0.5956   2.5837   3.8921

          k =-0.3333 1.5000-0.6667 (   738 PWs)   bands (ev):

    -3.1790  -0.6989   3.6031   4.5602

          k = 1.0000-0.6667 0.3333 (   740 PWs)   bands (ev):

    -3.4838   0.5956   2.5837   3.8921

          k = 1.0000-0.1667 0.3333 (   727 PWs)   bands (ev):

    -1.9405  -1.0339   1.8748   3.4042

          k =-0.8333 0.1667-0.5000 (   734 PWs)   bands (ev):

    -2.4695  -0.6336   2.1382   3.4096

          k =-0.8333 0.6667-0.5000 (   744 PWs)   bands (ev):

    -4.1723   0.9333   3.7616   4.9082

          k =-0.1667 0.5000-0.8333 (   734 PWs)   bands (ev):

    -2.4695  -0.6336   2.1382   3.4096

          k =-0.1667 1.0000-0.8333 (   741 PWs)   bands (ev):

    -2.7526  -0.2611   3.0464   3.2467

          k =-1.0000-0.3333 0.0000 (   738 PWs)   bands (ev):

    -1.4718  -1.4718   2.5013   2.5013

          k =-1.0000 0.1667 0.0000 (   738 PWs)   bands (ev):

    -1.5609  -1.5609   3.0097   3.0097

          k =-1.0000 0.0000 0.3333 (   738 PWs)   bands (ev):

    -1.4718  -1.4718   2.5013   2.5013

          k =-1.0000 0.5000 0.3333 (   734 PWs)   bands (ev):

    -3.0287   0.0106   1.9838   4.1184

          k = 0.0000 0.3333 1.0000 (   738 PWs)   bands (ev):

    -1.4718  -1.4718   2.5013   2.5013

          k = 0.0000 0.8333 1.0000 (   738 PWs)   bands (ev):

    -1.5609  -1.5609   3.0097   3.0097

     highest occupied level (ev):     6.2376

     Writing output data file ./out/_ph0/silicon.save/

     phonons of Si                                                              

     bravais-lattice index     =            2
     lattice parameter (alat)  =      10.2000  a.u.
     unit-cell volume          =     265.3020 (a.u.)^3
     number of atoms/cell      =            2
     number of atomic types    =            1
     kinetic-energy cut-off    =      30.0000  Ry
     charge density cut-off    =     120.0000  Ry
     convergence threshold     =      1.0E-14
     beta                      =       0.7000
     number of iterations used =            4
     Exchange-correlation= PZ
                           (   1   1   0   0   0   0   0)


     celldm(1)=   10.20000  celldm(2)=    0.00000  celldm(3)=    0.00000
     celldm(4)=    0.00000  celldm(5)=    0.00000  celldm(6)=    0.00000

     crystal axes: (cart. coord. in units of alat)
               a(1) = ( -0.5000  0.0000  0.5000 )  
               a(2) = (  0.0000  0.5000  0.5000 )  
               a(3) = ( -0.5000  0.5000  0.0000 )  

     reciprocal axes: (cart. coord. in units 2 pi/alat)
               b(1) = ( -1.0000 -1.0000  1.0000 )  
               b(2) = (  1.0000  1.0000  1.0000 )  
               b(3) = ( -1.0000  1.0000 -1.0000 )  


     Atoms inside the unit cell: 

     Cartesian axes

     site n.  atom      mass           positions (alat units)
        1     Si  28.0860   tau(    1) = (    0.00000    0.00000    0.00000  )
        2     Si  28.0860   tau(    2) = (    0.25000    0.25000    0.25000  )

     Computing dynamical matrix for 
                    q = (   0.0000000   0.5000000   0.0000000 )

      8 Sym.Ops. (no q -> -q+G )


     G cutoff =  316.2437  (   5961 G-vectors)     FFT grid: ( 32, 32, 32)
     number of k points=    96

     PseudoPot. # 1 for Si read from file:
     ../../pseudoPotentials/Si.pz-vbc.UPF
     MD5 check sum: 9f25e6ff280f3123e9b3a84715b2e9c9
     Pseudo is Norm-conserving, Zval =  4.0
     Generated by new atomic code, or converted to UPF format
     Using radial grid of  431 points,  2 beta functions with: 
                l(1) =   0
                l(2) =   1

     Mode symmetry, C_4v (4mm)  point group:


     Atomic displacements:
     There are   4 irreducible representations

     Representation     1      1 modes -A_1  G_1 D_1  To be done

     Representation     2      1 modes -B_2  G_4 D_2'  To be done

     Representation     3      2 modes -E    G_5 D_5  To be done

     Representation     4      2 modes -E    G_5 D_5  To be done



     Alpha used in Ewald sum =   1.3000
     PHONON       :     30.53s CPU     31.47s WALL



     Representation #  1 mode #   1

     Self-consistent Calculation

      iter #   1 total cpu time :    31.9 secs   av.it.:   5.9
      thresh= 1.000E-02 alpha_mix =  0.700 |ddv_scf|^2 =  7.749E-04

      iter #   2 total cpu time :    32.4 secs   av.it.:   8.3
      thresh= 2.784E-03 alpha_mix =  0.700 |ddv_scf|^2 =  1.037E-02

      iter #   3 total cpu time :    32.9 secs   av.it.:   6.7
      thresh= 1.000E-02 alpha_mix =  0.700 |ddv_scf|^2 =  7.004E-09

      iter #   4 total cpu time :    33.5 secs   av.it.:   9.3
      thresh= 8.369E-06 alpha_mix =  0.700 |ddv_scf|^2 =  4.545E-10

      iter #   5 total cpu time :    34.0 secs   av.it.:   8.9
      thresh= 2.132E-06 alpha_mix =  0.700 |ddv_scf|^2 =  1.014E-11

      iter #   6 total cpu time :    34.5 secs   av.it.:   8.3
      thresh= 3.184E-07 alpha_mix =  0.700 |ddv_scf|^2 =  2.099E-14

      iter #   7 total cpu time :    35.1 secs   av.it.:   9.0
      thresh= 1.449E-08 alpha_mix =  0.700 |ddv_scf|^2 =  1.739E-15

     End of self-consistent calculation

     Convergence has been achieved 


     Representation #  2 mode #   2

     Self-consistent Calculation

      iter #   1 total cpu time :    35.5 secs   av.it.:   5.2
      thresh= 1.000E-02 alpha_mix =  0.700 |ddv_scf|^2 =  1.373E-06

      iter #   2 total cpu time :    36.1 secs   av.it.:   9.2
      thresh= 1.172E-04 alpha_mix =  0.700 |ddv_scf|^2 =  3.104E-07

      iter #   3 total cpu time :    36.6 secs   av.it.:   8.8
      thresh= 5.572E-05 alpha_mix =  0.700 |ddv_scf|^2 =  1.270E-09

      iter #   4 total cpu time :    37.2 secs   av.it.:   9.0
      thresh= 3.564E-06 alpha_mix =  0.700 |ddv_scf|^2 =  3.364E-11

      iter #   5 total cpu time :    37.7 secs   av.it.:   8.5
      thresh= 5.800E-07 alpha_mix =  0.700 |ddv_scf|^2 =  4.797E-13

      iter #   6 total cpu time :    38.2 secs   av.it.:   8.4
      thresh= 6.926E-08 alpha_mix =  0.700 |ddv_scf|^2 =  4.205E-16

     End of self-consistent calculation

     Convergence has been achieved 


     Representation #  3 modes #   3  4

     Self-consistent Calculation

      iter #   1 total cpu time :    39.0 secs   av.it.:   5.4
      thresh= 1.000E-02 alpha_mix =  0.700 |ddv_scf|^2 =  3.093E-07

      iter #   2 total cpu time :    40.3 secs   av.it.:  10.3
      thresh= 5.561E-05 alpha_mix =  0.700 |ddv_scf|^2 =  4.850E-08

      iter #   3 total cpu time :    41.4 secs   av.it.:   9.8
      thresh= 2.202E-05 alpha_mix =  0.700 |ddv_scf|^2 =  4.690E-11

      iter #   4 total cpu time :    42.6 secs   av.it.:   9.7
      thresh= 6.848E-07 alpha_mix =  0.700 |ddv_scf|^2 =  2.517E-12

      iter #   5 total cpu time :    43.7 secs   av.it.:   9.8
      thresh= 1.586E-07 alpha_mix =  0.700 |ddv_scf|^2 =  2.475E-15

     End of self-consistent calculation

     Convergence has been achieved 


     Representation #  4 modes #   5  6

     Self-consistent Calculation

      iter #   1 total cpu time :    44.5 secs   av.it.:   5.2
      thresh= 1.000E-02 alpha_mix =  0.700 |ddv_scf|^2 =  2.041E-07

      iter #   2 total cpu time :    45.7 secs   av.it.:  10.3
      thresh= 4.518E-05 alpha_mix =  0.700 |ddv_scf|^2 =  3.114E-08

      iter #   3 total cpu time :    46.8 secs   av.it.:   9.8
      thresh= 1.765E-05 alpha_mix =  0.700 |ddv_scf|^2 =  4.971E-11

      iter #   4 total cpu time :    47.7 secs   av.it.:   9.8
      thresh= 7.051E-07 alpha_mix =  0.700 |ddv_scf|^2 =  2.861E-12

      iter #   5 total cpu time :    48.4 secs   av.it.:   9.8
      thresh= 1.692E-07 alpha_mix =  0.700 |ddv_scf|^2 =  2.882E-15

     End of self-consistent calculation

     Convergence has been achieved 

     Number of q in the star =    6
     List of q in the star:
          1   0.000000000   0.500000000   0.000000000
          2   0.000000000  -0.500000000   0.000000000
          3   0.500000000   0.000000000   0.000000000
          4   0.000000000   0.000000000   0.500000000
          5   0.000000000   0.000000000  -0.500000000
          6  -0.500000000   0.000000000   0.000000000

     Diagonalizing the dynamical matrix

     q = (    0.000000000   0.500000000   0.000000000 ) 

 **************************************************************************
     freq (    1) =       3.817756 [THz] =     127.346638 [cm-1]
     freq (    2) =       3.817756 [THz] =     127.346638 [cm-1]
     freq (    3) =       7.244143 [THz] =     241.638591 [cm-1]
     freq (    4) =      14.133653 [THz] =     471.447928 [cm-1]
     freq (    5) =      14.133653 [THz] =     471.447928 [cm-1]
     freq (    6) =      14.676204 [THz] =     489.545484 [cm-1]
 **************************************************************************

     Mode symmetry, C_4v (4mm)  point group:

     freq (  1 -  2) =        127.3  [cm-1]   --> E    G_5 D_5       
     freq (  3 -  3) =        241.6  [cm-1]   --> A_1  G_1 D_1       
     freq (  4 -  5) =        471.4  [cm-1]   --> E    G_5 D_5       
     freq (  6 -  6) =        489.5  [cm-1]   --> B_2  G_4 D_2'      

     Calculation of q =    0.7500000  -0.2500000   0.7500000

     G-vector sticks info
     --------------------
     sticks:   dense  smooth     PW     G-vecs:    dense   smooth      PW
     Sum         433     433    163                 5961     5961    1459


     Title: 
     phonons of Si                                                              


     bravais-lattice index     =            2
     lattice parameter (alat)  =      10.2000  a.u.
     unit-cell volume          =     265.3020 (a.u.)^3
     number of atoms/cell      =            2
     number of atomic types    =            1
     number of electrons       =         8.00
     number of Kohn-Sham states=            4
     kinetic-energy cutoff     =      30.0000  Ry
     charge density cutoff     =     120.0000  Ry
     Exchange-correlation= PZ
                           (   1   1   0   0   0   0   0)

     celldm(1)=  10.200000  celldm(2)=   0.000000  celldm(3)=   0.000000
     celldm(4)=   0.000000  celldm(5)=   0.000000  celldm(6)=   0.000000

     crystal axes: (cart. coord. in units of alat)
               a(1) = (  -0.500000   0.000000   0.500000 )  
               a(2) = (   0.000000   0.500000   0.500000 )  
               a(3) = (  -0.500000   0.500000   0.000000 )  

     reciprocal axes: (cart. coord. in units 2 pi/alat)
               b(1) = ( -1.000000 -1.000000  1.000000 )  
               b(2) = (  1.000000  1.000000  1.000000 )  
               b(3) = ( -1.000000  1.000000 -1.000000 )  


     PseudoPot. # 1 for Si read from file:
     ../../pseudoPotentials/Si.pz-vbc.UPF
     MD5 check sum: 9f25e6ff280f3123e9b3a84715b2e9c9
     Pseudo is Norm-conserving, Zval =  4.0
     Generated by new atomic code, or converted to UPF format
     Using radial grid of  431 points,  2 beta functions with: 
                l(1) =   0
                l(2) =   1

     atomic species   valence    mass     pseudopotential
        Si             4.00    28.08600     Si( 1.00)

     48 Sym. Ops., with inversion, found



   Cartesian axes

     site n.     atom                  positions (alat units)
         1           Si  tau(   1) = (   0.0000000   0.0000000   0.0000000  )
         2           Si  tau(   2) = (   0.2500000   0.2500000   0.2500000  )

     number of k points=   252

     Number of k-points >= 100: set verbosity='high' to print them.

     Dense  grid:     5961 G-vectors     FFT dimensions: (  32,  32,  32)

     Estimated max dynamical RAM per process >       3.57 MB

     Estimated total dynamical RAM >      14.28 MB

     The potential is recalculated from file :
     ./out/_ph0/silicon.save/charge-density

     Starting wfcs are    8 atomic wfcs

     Band Structure Calculation
     Davidson diagonalization with overlap

     ethr =  1.25E-10,  avg # of iterations = 11.5

     total cpu time spent up to now is        4.9 secs

     End of band structure calculation

     Number of k-points >= 100: set verbosity='high' to print the bands.

     highest occupied level (ev):     6.2376

     Writing output data file ./out/_ph0/silicon.save/

     phonons of Si                                                              

     bravais-lattice index     =            2
     lattice parameter (alat)  =      10.2000  a.u.
     unit-cell volume          =     265.3020 (a.u.)^3
     number of atoms/cell      =            2
     number of atomic types    =            1
     kinetic-energy cut-off    =      30.0000  Ry
     charge density cut-off    =     120.0000  Ry
     convergence threshold     =      1.0E-14
     beta                      =       0.7000
     number of iterations used =            4
     Exchange-correlation= PZ
                           (   1   1   0   0   0   0   0)


     celldm(1)=   10.20000  celldm(2)=    0.00000  celldm(3)=    0.00000
     celldm(4)=    0.00000  celldm(5)=    0.00000  celldm(6)=    0.00000

     crystal axes: (cart. coord. in units of alat)
               a(1) = ( -0.5000  0.0000  0.5000 )  
               a(2) = (  0.0000  0.5000  0.5000 )  
               a(3) = ( -0.5000  0.5000  0.0000 )  

     reciprocal axes: (cart. coord. in units 2 pi/alat)
               b(1) = ( -1.0000 -1.0000  1.0000 )  
               b(2) = (  1.0000  1.0000  1.0000 )  
               b(3) = ( -1.0000  1.0000 -1.0000 )  


     Atoms inside the unit cell: 

     Cartesian axes

     site n.  atom      mass           positions (alat units)
        1     Si  28.0860   tau(    1) = (    0.00000    0.00000    0.00000  )
        2     Si  28.0860   tau(    2) = (    0.25000    0.25000    0.25000  )

     Computing dynamical matrix for 
                    q = (   0.7500000  -0.2500000   0.7500000 )

      2 Sym.Ops. (no q -> -q+G )


     G cutoff =  316.2437  (   5961 G-vectors)     FFT grid: ( 32, 32, 32)
     number of k points=   252

     PseudoPot. # 1 for Si read from file:
     ../../pseudoPotentials/Si.pz-vbc.UPF
     MD5 check sum: 9f25e6ff280f3123e9b3a84715b2e9c9
     Pseudo is Norm-conserving, Zval =  4.0
     Generated by new atomic code, or converted to UPF format
     Using radial grid of  431 points,  2 beta functions with: 
                l(1) =   0
                l(2) =   1

     Mode symmetry, C_s (m)     point group:


     Atomic displacements:
     There are   6 irreducible representations

     Representation     1      1 modes -A'  To be done

     Representation     2      1 modes -A'  To be done

     Representation     3      1 modes -A'  To be done

     Representation     4      1 modes -A'  To be done

     Representation     5      1 modes -A''  To be done

     Representation     6      1 modes -A''  To be done



     Alpha used in Ewald sum =   1.3000
     PHONON       :     49.49s CPU     50.87s WALL



     Representation #  1 mode #   1

     Self-consistent Calculation

      iter #   1 total cpu time :    51.6 secs   av.it.:   5.8
      thresh= 1.000E-02 alpha_mix =  0.700 |ddv_scf|^2 =  3.365E-05

      iter #   2 total cpu time :    52.6 secs   av.it.:   9.6
      thresh= 5.801E-04 alpha_mix =  0.700 |ddv_scf|^2 =  9.798E-05

      iter #   3 total cpu time :    53.6 secs   av.it.:   8.4
      thresh= 9.899E-04 alpha_mix =  0.700 |ddv_scf|^2 =  3.776E-07

      iter #   4 total cpu time :    54.6 secs   av.it.:   8.9
      thresh= 6.145E-05 alpha_mix =  0.700 |ddv_scf|^2 =  1.545E-09

      iter #   5 total cpu time :    55.6 secs   av.it.:   9.6
      thresh= 3.931E-06 alpha_mix =  0.700 |ddv_scf|^2 =  1.587E-10

      iter #   6 total cpu time :    57.1 secs   av.it.:   9.4
      thresh= 1.260E-06 alpha_mix =  0.700 |ddv_scf|^2 =  7.388E-12

      iter #   7 total cpu time :    58.4 secs   av.it.:   9.4
      thresh= 2.718E-07 alpha_mix =  0.700 |ddv_scf|^2 =  3.028E-13

      iter #   8 total cpu time :    59.5 secs   av.it.:   9.5
      thresh= 5.503E-08 alpha_mix =  0.700 |ddv_scf|^2 =  2.318E-15

     End of self-consistent calculation

     Convergence has been achieved 


     Representation #  2 mode #   2

     Self-consistent Calculation

      iter #   1 total cpu time :    60.2 secs   av.it.:   5.8
      thresh= 1.000E-02 alpha_mix =  0.700 |ddv_scf|^2 =  2.053E-05

      iter #   2 total cpu time :    61.3 secs   av.it.:   9.6
      thresh= 4.531E-04 alpha_mix =  0.700 |ddv_scf|^2 =  5.805E-05

      iter #   3 total cpu time :    62.1 secs   av.it.:   8.3
      thresh= 7.619E-04 alpha_mix =  0.700 |ddv_scf|^2 =  2.090E-07

      iter #   4 total cpu time :    63.1 secs   av.it.:   9.2
      thresh= 4.572E-05 alpha_mix =  0.700 |ddv_scf|^2 =  1.575E-09

      iter #   5 total cpu time :    64.1 secs   av.it.:   9.4
      thresh= 3.969E-06 alpha_mix =  0.700 |ddv_scf|^2 =  2.621E-10

      iter #   6 total cpu time :    65.1 secs   av.it.:   9.3
      thresh= 1.619E-06 alpha_mix =  0.700 |ddv_scf|^2 =  1.072E-11

      iter #   7 total cpu time :    66.1 secs   av.it.:   9.5
      thresh= 3.274E-07 alpha_mix =  0.700 |ddv_scf|^2 =  7.062E-13

      iter #   8 total cpu time :    67.0 secs   av.it.:   9.5
      thresh= 8.403E-08 alpha_mix =  0.700 |ddv_scf|^2 =  4.947E-14

      iter #   9 total cpu time :    68.0 secs   av.it.:   9.2
      thresh= 2.224E-08 alpha_mix =  0.700 |ddv_scf|^2 =  7.843E-14

      iter #  10 total cpu time :    68.9 secs   av.it.:   8.5
      thresh= 2.801E-08 alpha_mix =  0.700 |ddv_scf|^2 =  4.810E-15

     End of self-consistent calculation

     Convergence has been achieved 


     Representation #  3 mode #   3

     Self-consistent Calculation

      iter #   1 total cpu time :    69.6 secs   av.it.:   5.7
      thresh= 1.000E-02 alpha_mix =  0.700 |ddv_scf|^2 =  1.956E-05

      iter #   2 total cpu time :    70.6 secs   av.it.:   9.7
      thresh= 4.422E-04 alpha_mix =  0.700 |ddv_scf|^2 =  5.150E-05

      iter #   3 total cpu time :    71.5 secs   av.it.:   8.5
      thresh= 7.176E-04 alpha_mix =  0.700 |ddv_scf|^2 =  4.830E-07

      iter #   4 total cpu time :    72.5 secs   av.it.:   8.8
      thresh= 6.949E-05 alpha_mix =  0.700 |ddv_scf|^2 =  1.191E-09

      iter #   5 total cpu time :    73.5 secs   av.it.:   9.6
      thresh= 3.452E-06 alpha_mix =  0.700 |ddv_scf|^2 =  1.408E-10

      iter #   6 total cpu time :    74.6 secs   av.it.:   9.3
      thresh= 1.186E-06 alpha_mix =  0.700 |ddv_scf|^2 =  6.558E-12

      iter #   7 total cpu time :    75.6 secs   av.it.:   9.4
      thresh= 2.561E-07 alpha_mix =  0.700 |ddv_scf|^2 =  2.962E-13

      iter #   8 total cpu time :    76.7 secs   av.it.:   9.6
      thresh= 5.443E-08 alpha_mix =  0.700 |ddv_scf|^2 =  1.057E-13

      iter #   9 total cpu time :    77.7 secs   av.it.:   8.9
[...]

     Dense  grid:     5961 G-vectors     FFT dimensions: (  32,  32,  32)

     Estimated max dynamical RAM per process >       3.57 MB

     Estimated total dynamical RAM >      14.28 MB

     The potential is recalculated from file :
     ./out/_ph0/silicon.save/charge-density

     Starting wfcs are    8 atomic wfcs

     Band Structure Calculation
     Davidson diagonalization with overlap

     ethr =  1.25E-10,  avg # of iterations = 11.3

     total cpu time spent up to now is        7.7 secs

     End of band structure calculation

          k = 0.0000 0.0000 0.0000 (   725 PWs)   bands (ev):

    -5.8155   6.2376   6.2376   6.2376

          k =-0.5000-1.0000 0.0000 (   724 PWs)   bands (ev):

    -1.4234  -1.4234   2.2839   2.2839

          k =-0.1667 0.1667-0.1667 (   730 PWs)   bands (ev):

    -5.4484   3.8477   5.7796   5.7796

          k =-0.6667-0.8333-0.1667 (   730 PWs)   bands (ev):

    -2.5522  -0.5167   2.1955   3.5600

          k =-0.3333 0.3333-0.3333 (   751 PWs)   bands (ev):

    -4.4122   0.8538   5.2229   5.2229

          k =-0.8333-0.6667-0.3333 (   735 PWs)   bands (ev):

    -3.4187   0.1834   2.9549   4.0672

          k = 0.5000-0.5000 0.5000 (   754 PWs)   bands (ev):

    -3.4235  -0.8241   5.0226   5.0226

          k = 0.0000-1.5000 0.5000 (   742 PWs)   bands (ev):

    -3.7325   0.7488   2.3949   4.8888

          k = 0.0000 0.3333 0.0000 (   737 PWs)   bands (ev):

    -5.3237   4.2296   5.0207   5.0207

          k =-0.5000-0.6667 0.0000 (   734 PWs)   bands (ev):

    -3.0287   0.0106   1.9838   4.1184

          k =-0.1667 0.5000-0.1667 (   742 PWs)   bands (ev):

    -4.4936   1.7900   4.2160   4.4590

          k =-0.6667-0.5000-0.1667 (   737 PWs)   bands (ev):

    -3.0441  -0.3534   2.5818   4.2261

          k = 0.6667-0.3333 0.6667 (   732 PWs)   bands (ev):

    -3.2684  -0.4310   3.4190   4.4305

          k = 0.1667-1.3333 0.6667 (   735 PWs)   bands (ev):

    -2.7045  -0.6035   2.2578   4.1766

          k = 0.5000-0.1667 0.5000 (   734 PWs)   bands (ev):

    -3.6665   0.1856   3.1363   4.9204

          k = 0.0000-1.1667 0.5000 (   730 PWs)   bands (ev):

    -2.2261  -0.6889   1.9198   3.0832

          k = 0.3333 0.0000 0.3333 (   740 PWs)   bands (ev):

    -4.8497   2.5213   3.7682   5.6671

          k =-0.1667-1.0000 0.3333 (   727 PWs)   bands (ev):

    -1.9405  -1.0339   1.8748   3.4042

          k = 0.0000 0.6667 0.0000 (   717 PWs)   bands (ev):

    -3.8799   1.2436   3.7744   3.7744

          k =-0.5000-0.3333 0.0000 (   744 PWs)   bands (ev):

    -4.2695   1.5490   3.0664   4.9442

          k = 0.8333-0.1667 0.8333 (   737 PWs)   bands (ev):

    -2.6919  -0.3317   2.5171   3.6361

          k = 0.3333-1.1667 0.8333 (   738 PWs)   bands (ev):

    -3.6845   0.7786   3.1878   3.9523

          k = 0.6667-0.0000 0.6667 (   730 PWs)   bands (ev):

    -2.4810  -0.5492   1.7102   4.0881

          k = 0.1667-1.0000 0.6667 (   737 PWs)   bands (ev):

    -2.5297  -0.4051   2.3776   3.0095

          k = 0.0000-1.0000 0.0000 (   740 PWs)   bands (ev):

    -1.6023  -1.6023   3.3318   3.3318

          k =-0.5000-2.0000 0.0000 (   729 PWs)   bands (ev):

    -4.7160   2.7493   4.3115   4.3115

          k = 0.6667-0.3333 1.0000 (   740 PWs)   bands (ev):

    -3.4838   0.5956   2.5837   3.8921

          k = 0.1667-1.3333 1.0000 (   737 PWs)   bands (ev):

    -2.5297  -0.4051   2.3776   3.0095

          k = 0.5000-0.1667 0.8333 (   734 PWs)   bands (ev):

    -2.4695  -0.6336   2.1382   3.4096

          k = 0.0000-1.1667 0.8333 (   738 PWs)   bands (ev):

    -1.7345  -1.3379   2.2951   3.5289

          k =-0.3333-1.0000 0.0000 (   738 PWs)   bands (ev):

    -1.4718  -1.4718   2.5013   2.5013

          k =-0.8333-2.0000 0.0000 (   745 PWs)   bands (ev):

    -2.8332  -0.2263   3.4434   3.4434

          k = 0.3333 0.0000 0.0000 (   737 PWs)   bands (ev):

    -5.3237   4.2296   5.0207   5.0207

          k =-0.1667-1.0000 0.0000 (   738 PWs)   bands (ev):

    -1.5609  -1.5609   3.0097   3.0097

          k = 0.1667-0.5000 0.1667 (   742 PWs)   bands (ev):

    -4.4936   1.7900   4.2160   4.4590

          k =-0.3333-1.5000 0.1667 (   744 PWs)   bands (ev):

    -4.1723   0.9333   3.7616   4.9082

          k = 0.5000-0.1667-0.1667 (   742 PWs)   bands (ev):

    -4.4936   1.7900   4.2160   4.4590

          k = 0.0000-1.1667-0.1667 (   741 PWs)   bands (ev):

    -2.7526  -0.2611   3.0464   3.2467

          k =-0.6667 0.3333-0.6667 (   732 PWs)   bands (ev):

    -3.2684  -0.4310   3.4190   4.4305

          k =-1.1667-0.6667-0.6667 (   744 PWs)   bands (ev):

    -4.7385   1.8070   4.5193   5.5469

          k =-0.3333 0.6667 0.6667 (   732 PWs)   bands (ev):

    -3.2684  -0.4310   3.4190   4.4305

          k =-0.8333-0.3333 0.6667 (   735 PWs)   bands (ev):

    -3.4187   0.1834   2.9549   4.0672

          k =-0.5000 0.1667-0.5000 (   734 PWs)   bands (ev):

    -3.6665   0.1856   3.1363   4.9204

          k =-1.0000-0.8333-0.5000 (   736 PWs)   bands (ev):

    -4.6031   2.3319   3.8565   4.5837

          k =-0.1667 0.5000 0.5000 (   734 PWs)   bands (ev):

    -3.6665   0.1856   3.1363   4.9204

          k =-0.6667-0.5000 0.5000 (   740 PWs)   bands (ev):

    -3.5141  -0.5294   4.3353   4.9873

          k =-0.3333 0.0000-0.3333 (   740 PWs)   bands (ev):

    -4.8497   2.5213   3.7682   5.6671

          k =-0.8333-1.0000-0.3333 (   731 PWs)   bands (ev):

    -3.7785   1.0643   3.3365   3.7761

          k = 0.0000 0.3333 0.3333 (   740 PWs)   bands (ev):

    -4.8497   2.5213   3.7682   5.6671

          k =-0.5000-0.6667 0.3333 (   738 PWs)   bands (ev):

    -3.1790  -0.6989   3.6031   4.5602

          k = 0.6667 0.0000 0.0000 (   717 PWs)   bands (ev):

    -3.8799   1.2436   3.7744   3.7744

          k = 0.1667-1.0000 0.0000 (   738 PWs)   bands (ev):

    -1.5609  -1.5609   3.0097   3.0097

          k =-0.8333 0.1667-0.8333 (   737 PWs)   bands (ev):

    -2.6919  -0.3317   2.5171   3.6361

          k =-1.3333-0.8333-0.8333 (   741 PWs)   bands (ev):

    -5.0870   2.7933   5.1098   5.3020

          k =-0.1667 0.8333 0.8333 (   737 PWs)   bands (ev):

    -2.6919  -0.3317   2.5171   3.6361

          k =-0.6667-0.1667 0.8333 (   730 PWs)   bands (ev):

    -2.5522  -0.5167   2.1955   3.5600

          k =-0.6667 0.0000-0.6667 (   730 PWs)   bands (ev):

    -2.4810  -0.5492   1.7102   4.0881

          k =-1.1667-1.0000-0.6667 (   738 PWs)   bands (ev):

    -5.2044   3.5199   4.5659   5.5249

          k = 0.0000 0.6667 0.6667 (   730 PWs)   bands (ev):

    -2.4810  -0.5492   1.7102   4.0881

          k =-0.5000-0.3333 0.6667 (   738 PWs)   bands (ev):

    -3.1790  -0.6989   3.6031   4.5602

          k =-1.0000 0.0000 0.0000 (   740 PWs)   bands (ev):

    -1.6023  -1.6023   3.3318   3.3318

          k =-1.5000-1.0000 0.0000 (   724 PWs)   bands (ev):

    -1.4234  -1.4234   2.2839   2.2839

          k =-1.0000 0.3333-0.6667 (   740 PWs)   bands (ev):

    -3.4838   0.5956   2.5837   3.8921

          k =-1.5000-0.6667-0.6667 (   740 PWs)   bands (ev):

    -3.8980   0.0798   4.6433   4.8079

          k =-0.6667 0.3333 1.0000 (   740 PWs)   bands (ev):

    -3.4838   0.5956   2.5837   3.8921

          k =-1.1667-0.6667 1.0000 (   738 PWs)   bands (ev):

    -5.2044   3.5199   4.5659   5.5249

          k =-0.3333 1.0000 0.6667 (   740 PWs)   bands (ev):

    -3.4838   0.5956   2.5837   3.8921

          k =-0.8333 0.0000 0.6667 (   727 PWs)   bands (ev):

    -1.9405  -1.0339   1.8748   3.4042

          k = 0.3333 1.0000-0.6667 (   740 PWs)   bands (ev):

    -3.4838   0.5956   2.5837   3.8921

          k =-0.1667 0.0000-0.6667 (   731 PWs)   bands (ev):

    -3.7785   1.0643   3.3365   3.7761

          k =-0.8333 0.1667-0.5000 (   734 PWs)   bands (ev):

    -2.4695  -0.6336   2.1382   3.4096

          k =-1.3333-0.8333-0.5000 (   744 PWs)   bands (ev):

    -4.1723   0.9333   3.7616   4.9082

          k = 0.8333-0.1667 0.5000 (   734 PWs)   bands (ev):

    -2.4695  -0.6336   2.1382   3.4096

          k = 0.3333-1.1667 0.5000 (   737 PWs)   bands (ev):

    -3.0441  -0.3534   2.5818   4.2261

          k =-0.5000 0.1667 0.8333 (   734 PWs)   bands (ev):

    -2.4695  -0.6336   2.1382   3.4096

          k =-1.0000-0.8333 0.8333 (   739 PWs)   bands (ev):

    -5.5697   4.6547   5.3526   6.1195

          k = 0.0000 1.0000 0.3333 (   738 PWs)   bands (ev):

    -1.4718  -1.4718   2.5013   2.5013

          k =-0.5000 0.0000 0.3333 (   744 PWs)   bands (ev):

    -4.2695   1.5490   3.0664   4.9442

          k = 0.3333 1.0000 0.0000 (   738 PWs)   bands (ev):

    -1.4718  -1.4718   2.5013   2.5013

          k =-0.1667 0.0000 0.0000 (   733 PWs)   bands (ev):

    -5.6921   5.5613   5.7978   5.7978

          k =-1.0000 0.0000-0.3333 (   738 PWs)   bands (ev):

    -1.4718  -1.4718   2.5013   2.5013

          k =-1.5000-1.0000-0.3333 (   734 PWs)   bands (ev):

    -3.0287   0.0106   1.9838   4.1184

     highest occupied level (ev):     6.2376

     Writing output data file ./out/_ph0/silicon.save/

     phonons of Si                                                              

     bravais-lattice index     =            2
     lattice parameter (alat)  =      10.2000  a.u.
     unit-cell volume          =     265.3020 (a.u.)^3
     number of atoms/cell      =            2
     number of atomic types    =            1
     kinetic-energy cut-off    =      30.0000  Ry
     charge density cut-off    =     120.0000  Ry
     convergence threshold     =      1.0E-14
     beta                      =       0.7000
     number of iterations used =            4
     Exchange-correlation= PZ
                           (   1   1   0   0   0   0   0)


     celldm(1)=   10.20000  celldm(2)=    0.00000  celldm(3)=    0.00000
     celldm(4)=    0.00000  celldm(5)=    0.00000  celldm(6)=    0.00000

     crystal axes: (cart. coord. in units of alat)
               a(1) = ( -0.5000  0.0000  0.5000 )  
               a(2) = (  0.0000  0.5000  0.5000 )  
               a(3) = ( -0.5000  0.5000  0.0000 )  

     reciprocal axes: (cart. coord. in units 2 pi/alat)
               b(1) = ( -1.0000 -1.0000  1.0000 )  
               b(2) = (  1.0000  1.0000  1.0000 )  
               b(3) = ( -1.0000  1.0000 -1.0000 )  


     Atoms inside the unit cell: 

     Cartesian axes

     site n.  atom      mass           positions (alat units)
        1     Si  28.0860   tau(    1) = (    0.00000    0.00000    0.00000  )
        2     Si  28.0860   tau(    2) = (    0.25000    0.25000    0.25000  )

     Computing dynamical matrix for 
                    q = (  -0.5000000  -1.0000000   0.0000000 )

      8 Sym.Ops. (no q -> -q+G )


     G cutoff =  316.2437  (   5961 G-vectors)     FFT grid: ( 32, 32, 32)
     number of k points=    82

     PseudoPot. # 1 for Si read from file:
     ../../pseudoPotentials/Si.pz-vbc.UPF
     MD5 check sum: 9f25e6ff280f3123e9b3a84715b2e9c9
     Pseudo is Norm-conserving, Zval =  4.0
     Generated by new atomic code, or converted to UPF format
     Using radial grid of  431 points,  2 beta functions with: 
                l(1) =   0
                l(2) =   1


     Atomic displacements:
     There are   3 irreducible representations

     Representation     1      2 modes -  To be done

     Representation     2      2 modes -  To be done

     Representation     3      2 modes -  To be done



     Alpha used in Ewald sum =   1.3000
     PHONON       :   2m10.68s CPU   2m14.09s WALL



     Representation #  1 modes #   1  2

     Self-consistent Calculation

      iter #   1 total cpu time :   134.6 secs   av.it.:   5.6
      thresh= 1.000E-02 alpha_mix =  0.700 |ddv_scf|^2 =  2.608E-06

      iter #   2 total cpu time :   135.4 secs   av.it.:  10.3
      thresh= 1.615E-04 alpha_mix =  0.700 |ddv_scf|^2 =  3.419E-06

      iter #   3 total cpu time :   136.2 secs   av.it.:   9.6
      thresh= 1.849E-04 alpha_mix =  0.700 |ddv_scf|^2 =  3.903E-10

      iter #   4 total cpu time :   136.9 secs   av.it.:   9.9
      thresh= 1.976E-06 alpha_mix =  0.700 |ddv_scf|^2 =  1.050E-11

      iter #   5 total cpu time :   137.6 secs   av.it.:   9.8
      thresh= 3.241E-07 alpha_mix =  0.700 |ddv_scf|^2 =  2.727E-14

      iter #   6 total cpu time :   138.3 secs   av.it.:   9.6
      thresh= 1.651E-08 alpha_mix =  0.700 |ddv_scf|^2 =  6.858E-16

     End of self-consistent calculation

     Convergence has been achieved 


     Representation #  2 modes #   3  4

     Self-consistent Calculation

      iter #   1 total cpu time :   138.8 secs   av.it.:   5.5
      thresh= 1.000E-02 alpha_mix =  0.700 |ddv_scf|^2 =  1.216E-06

      iter #   2 total cpu time :   139.6 secs   av.it.:  10.2
      thresh= 1.103E-04 alpha_mix =  0.700 |ddv_scf|^2 =  7.761E-07

      iter #   3 total cpu time :   140.3 secs   av.it.:   9.7
      thresh= 8.810E-05 alpha_mix =  0.700 |ddv_scf|^2 =  7.582E-11

      iter #   4 total cpu time :   141.0 secs   av.it.:   9.8
      thresh= 8.707E-07 alpha_mix =  0.700 |ddv_scf|^2 =  5.095E-12

      iter #   5 total cpu time :   141.8 secs   av.it.:  10.0
      thresh= 2.257E-07 alpha_mix =  0.700 |ddv_scf|^2 =  8.566E-15

     End of self-consistent calculation

     Convergence has been achieved 


     Representation #  3 modes #   5  6

     Self-consistent Calculation

      iter #   1 total cpu time :   142.3 secs   av.it.:   5.7
      thresh= 1.000E-02 alpha_mix =  0.700 |ddv_scf|^2 =  1.470E-06

      iter #   2 total cpu time :   143.1 secs   av.it.:  10.3
      thresh= 1.212E-04 alpha_mix =  0.700 |ddv_scf|^2 =  9.652E-07

      iter #   3 total cpu time :   143.8 secs   av.it.:   9.8
      thresh= 9.824E-05 alpha_mix =  0.700 |ddv_scf|^2 =  7.185E-11

      iter #   4 total cpu time :   144.6 secs   av.it.:  10.0
      thresh= 8.477E-07 alpha_mix =  0.700 |ddv_scf|^2 =  8.362E-12

      iter #   5 total cpu time :   145.3 secs   av.it.:  10.0
      thresh= 2.892E-07 alpha_mix =  0.700 |ddv_scf|^2 =  4.428E-15

     End of self-consistent calculation

     Convergence has been achieved 

     Number of q in the star =    6
     List of q in the star:
          1  -0.500000000  -1.000000000   0.000000000
          2   0.000000000   1.000000000   0.500000000
          3   0.000000000  -1.000000000  -0.500000000
          4   0.500000000   1.000000000   0.000000000
          5  -1.000000000  -0.500000000   0.000000000
          6   0.000000000  -0.500000000  -1.000000000

     Diagonalizing the dynamical matrix

     q = (   -0.500000000  -1.000000000   0.000000000 ) 

 **************************************************************************
     freq (    1) =       6.106264 [THz] =     203.683026 [cm-1]
     freq (    2) =       6.106264 [THz] =     203.683026 [cm-1]
     freq (    3) =      10.486670 [THz] =     349.797652 [cm-1]
     freq (    4) =      10.486670 [THz] =     349.797652 [cm-1]
     freq (    5) =      13.929195 [THz] =     464.627939 [cm-1]
     freq (    6) =      13.929195 [THz] =     464.627939 [cm-1]
 **************************************************************************

     init_run     :      0.25s CPU      0.25s WALL (       7 calls)
     electrons    :      7.25s CPU      7.36s WALL (       7 calls)

     Called by init_run:
     wfcinit      :      0.00s CPU      0.00s WALL (       7 calls)
     potinit      :      0.04s CPU      0.05s WALL (       7 calls)
     hinit0       :      0.14s CPU      0.14s WALL (       7 calls)

     Called by electrons:
     c_bands      :      7.25s CPU      7.35s WALL (       7 calls)
     v_of_rho     :      0.02s CPU      0.02s WALL (       8 calls)

     Called by c_bands:
     init_us_2    :      0.80s CPU      0.84s WALL (    4507 calls)
     cegterg      :      5.60s CPU      5.67s WALL (     208 calls)

     Called by sum_band:

     Called by *egterg:
     h_psi        :     97.79s CPU     99.80s WALL (   47151 calls)
     g_psi        :      0.04s CPU      0.04s WALL (    2327 calls)
     cdiaghg      :      0.18s CPU      0.18s WALL (    2535 calls)

     Called by h_psi:
     h_psi:calbec :      1.81s CPU      1.85s WALL (   47151 calls)
     vloc_psi     :     94.06s CPU     95.99s WALL (   47151 calls)
     add_vuspsi   :      1.40s CPU      1.44s WALL (   47151 calls)

     General routines
     calbec       :      3.02s CPU      3.11s WALL (   95243 calls)
     fft          :      0.25s CPU      0.25s WALL (     926 calls)
     ffts         :      0.21s CPU      0.22s WALL (     864 calls)
     fftw         :     92.19s CPU     94.22s WALL (  408076 calls)
     davcio       :      0.98s CPU      1.30s WALL (   22146 calls)

     Parallel routines

     PHONON       :   2m21.56s CPU   2m25.33s WALL

     INITIALIZATION: 
     phq_setup    :      0.06s CPU      0.06s WALL (       8 calls)
     phq_init     :      0.36s CPU      0.37s WALL (       8 calls)

     phq_init     :      0.36s CPU      0.37s WALL (       8 calls)
     init_vloc    :      0.00s CPU      0.00s WALL (       8 calls)
     init_us_1    :      0.07s CPU      0.07s WALL (       8 calls)

     DYNAMICAL MATRIX:
     dynmat0      :      0.11s CPU      0.11s WALL (       8 calls)
     phqscf       :    131.21s CPU    134.76s WALL (       8 calls)
     dynmatrix    :      0.02s CPU      0.02s WALL (       8 calls)

     phqscf       :    131.21s CPU    134.76s WALL (       8 calls)
     solve_linter :    130.86s CPU    134.33s WALL (      32 calls)
     drhodv       :      0.29s CPU      0.33s WALL (      32 calls)

     dynmat0      :      0.11s CPU      0.11s WALL (       8 calls)
     dynmat_us    :      0.08s CPU      0.08s WALL (       8 calls)
     d2ionq       :      0.02s CPU      0.02s WALL (       8 calls)

     dynmat_us    :      0.08s CPU      0.08s WALL (       8 calls)

     phqscf       :    131.21s CPU    134.76s WALL (       8 calls)
     solve_linter :    130.86s CPU    134.33s WALL (      32 calls)

     solve_linter :    130.86s CPU    134.33s WALL (      32 calls)
     dvqpsi_us    :      1.95s CPU      2.00s WALL (     672 calls)
     ortho        :      0.23s CPU      0.24s WALL (    4324 calls)
     cgsolve      :     98.11s CPU    100.17s WALL (    4324 calls)
     incdrhoscf   :     11.79s CPU     12.02s WALL (    4312 calls)
     vpsifft      :      8.80s CPU      9.09s WALL (    3604 calls)
     dv_of_drho   :      0.33s CPU      0.33s WALL (     298 calls)
     mix_pot      :      0.52s CPU      0.96s WALL (     209 calls)
     psymdvscf    :      4.82s CPU      4.87s WALL (     204 calls)

     dvqpsi_us    :      1.95s CPU      2.00s WALL (     672 calls)
     dvqpsi_us_on :      0.09s CPU      0.09s WALL (     672 calls)

     cgsolve      :     98.11s CPU    100.17s WALL (    4324 calls)
     ch_psi       :     96.52s CPU     98.54s WALL (   44408 calls)

     ch_psi       :     96.52s CPU     98.54s WALL (   44408 calls)
     h_psi        :     97.79s CPU     99.80s WALL (   47151 calls)
     last         :      3.80s CPU      3.88s WALL (   44408 calls)

     h_psi        :     97.79s CPU     99.80s WALL (   47151 calls)
     add_vuspsi   :      1.40s CPU      1.44s WALL (   47151 calls)

     incdrhoscf   :     11.79s CPU     12.02s WALL (    4312 calls)


      General routines
     calbec       :      3.02s CPU      3.11s WALL (   95243 calls)
     fft          :      0.25s CPU      0.25s WALL (     926 calls)
     ffts         :      0.21s CPU      0.22s WALL (     864 calls)
     fftw         :     92.19s CPU     94.22s WALL (  408076 calls)
     davcio       :      0.98s CPU      1.30s WALL (   22146 calls)
     write_rec    :      0.29s CPU      0.50s WALL (     241 calls)


     PHONON       :   2m21.56s CPU   2m25.33s WALL


   This run was terminated on:  13:58:38   2Nov2020            

=------------------------------------------------------------------------------=
   JOB DONE.
=------------------------------------------------------------------------------=
