
     Program PWSCF v.6.5 starts on  2Nov2020 at 13:56:12 

     This program is part of the open-source Quantum ESPRESSO suite
     for quantum simulation of materials; please cite
         "P. Giannozzi et al., J. Phys.:Condens. Matter 21 395502 (2009);
         "P. Giannozzi et al., J. Phys.:Condens. Matter 29 465901 (2017);
          URL http://www.quantum-espresso.org", 
     in publications or presentations arising from this work. More details at
     http://www.quantum-espresso.org/quote

     Parallel version (MPI), running on     4 processors

     MPI processes distributed on     1 nodes
     K-points division:     npool     =       4
     Reading input from scf.in

     Current dimensions of program PWSCF are:
     Max number of different atomic species (ntypx) = 10
     Max number of k-points (npk) =  40000
     Max angular momentum in pseudopotentials (lmaxx) =  3

     Subspace diagonalization in iterative solution of the eigenvalue problem:
     a serial algorithm will be used


     G-vector sticks info
     --------------------
     sticks:   dense  smooth     PW     G-vecs:    dense   smooth      PW
     Sum         433     433    139                 5961     5961    1067



     bravais-lattice index     =            2
     lattice parameter (alat)  =      10.2000  a.u.
     unit-cell volume          =     265.3020 (a.u.)^3
     number of atoms/cell      =            2
     number of atomic types    =            1
     number of electrons       =         8.00
     number of Kohn-Sham states=            4
     kinetic-energy cutoff     =      30.0000  Ry
     charge density cutoff     =     120.0000  Ry
     convergence threshold     =      1.0E-14
     mixing beta               =       0.7000
     number of iterations used =            8  plain     mixing
     Exchange-correlation= SLA PZ NOGX NOGC
                           (   1   1   0   0   0   0   0)

     celldm(1)=  10.200000  celldm(2)=   0.000000  celldm(3)=   0.000000
     celldm(4)=   0.000000  celldm(5)=   0.000000  celldm(6)=   0.000000

     crystal axes: (cart. coord. in units of alat)
               a(1) = (  -0.500000   0.000000   0.500000 )  
               a(2) = (   0.000000   0.500000   0.500000 )  
               a(3) = (  -0.500000   0.500000   0.000000 )  

     reciprocal axes: (cart. coord. in units 2 pi/alat)
               b(1) = ( -1.000000 -1.000000  1.000000 )  
               b(2) = (  1.000000  1.000000  1.000000 )  
               b(3) = ( -1.000000  1.000000 -1.000000 )  


     PseudoPot. # 1 for Si read from file:
     ../../pseudoPotentials/Si.pz-vbc.UPF
     MD5 check sum: 9f25e6ff280f3123e9b3a84715b2e9c9
     Pseudo is Norm-conserving, Zval =  4.0
     Generated by new atomic code, or converted to UPF format
     Using radial grid of  431 points,  2 beta functions with: 
                l(1) =   0
                l(2) =   1

     atomic species   valence    mass     pseudopotential
        Si             4.00    28.08600     Si( 1.00)

     48 Sym. Ops., with inversion, found (24 have fractional translation)



   Cartesian axes

     site n.     atom                  positions (alat units)
         1           Si  tau(   1) = (   0.0000000   0.0000000   0.0000000  )
         2           Si  tau(   2) = (   0.2500000   0.2500000   0.2500000  )

     number of k points=    16
                       cart. coord. in units 2pi/alat
        k(    1) = (   0.0000000   0.0000000   0.0000000), wk =   0.0092593
        k(    2) = (  -0.1666667   0.1666667  -0.1666667), wk =   0.0740741
        k(    3) = (  -0.3333333   0.3333333  -0.3333333), wk =   0.0740741
        k(    4) = (   0.5000000  -0.5000000   0.5000000), wk =   0.0370370
        k(    5) = (   0.0000000   0.3333333   0.0000000), wk =   0.0555556
        k(    6) = (  -0.1666667   0.5000000  -0.1666667), wk =   0.2222222
        k(    7) = (   0.6666667  -0.3333333   0.6666667), wk =   0.2222222
        k(    8) = (   0.5000000  -0.1666667   0.5000000), wk =   0.2222222
        k(    9) = (   0.3333333   0.0000000   0.3333333), wk =   0.1111111
        k(   10) = (   0.0000000   0.6666667   0.0000000), wk =   0.0555556
        k(   11) = (   0.8333333  -0.1666667   0.8333333), wk =   0.2222222
        k(   12) = (   0.6666667  -0.0000000   0.6666667), wk =   0.1111111
        k(   13) = (   0.0000000  -1.0000000   0.0000000), wk =   0.0277778
        k(   14) = (   0.6666667  -0.3333333   1.0000000), wk =   0.2222222
        k(   15) = (   0.5000000  -0.1666667   0.8333333), wk =   0.2222222
        k(   16) = (  -0.3333333  -1.0000000   0.0000000), wk =   0.1111111

     Dense  grid:     5961 G-vectors     FFT dimensions: (  32,  32,  32)

     Estimated max dynamical RAM per process >       5.54 MB

     Estimated total dynamical RAM >      22.15 MB

     Initial potential from superposition of free atoms

     starting charge    7.99901, renormalised to    8.00000
     Starting wfcs are    8 randomized atomic wfcs

     total cpu time spent up to now is        0.1 secs

     Self-consistent Calculation

     iteration #  1     ecut=    30.00 Ry     beta= 0.70
     Davidson diagonalization with overlap
     ethr =  1.00E-02,  avg # of iterations =  2.0

     Threshold (ethr) on eigenvalues was too large:
     Diagonalizing with lowered threshold

     Davidson diagonalization with overlap
     ethr =  8.05E-04,  avg # of iterations =  1.1

     total cpu time spent up to now is        0.1 secs

     total energy              =     -15.84701103 Ry
     Harris-Foulkes estimate   =     -15.86840606 Ry
     estimated scf accuracy    <       0.06289282 Ry

     iteration #  2     ecut=    30.00 Ry     beta= 0.70
     Davidson diagonalization with overlap
     ethr =  7.86E-04,  avg # of iterations =  1.0

     total cpu time spent up to now is        0.2 secs

     total energy              =     -15.85012477 Ry
     Harris-Foulkes estimate   =     -15.85042897 Ry
     estimated scf accuracy    <       0.00219906 Ry

     iteration #  3     ecut=    30.00 Ry     beta= 0.70
     Davidson diagonalization with overlap
     ethr =  2.75E-05,  avg # of iterations =  2.2

     total cpu time spent up to now is        0.2 secs

     total energy              =     -15.85054150 Ry
     Harris-Foulkes estimate   =     -15.85057210 Ry
     estimated scf accuracy    <       0.00007240 Ry

     iteration #  4     ecut=    30.00 Ry     beta= 0.70
     Davidson diagonalization with overlap
     ethr =  9.05E-07,  avg # of iterations =  2.1

     total cpu time spent up to now is        0.2 secs

     total energy              =     -15.85055929 Ry
     Harris-Foulkes estimate   =     -15.85056296 Ry
     estimated scf accuracy    <       0.00000784 Ry

     iteration #  5     ecut=    30.00 Ry     beta= 0.70
     Davidson diagonalization with overlap
     ethr =  9.80E-08,  avg # of iterations =  2.1

     total cpu time spent up to now is        0.2 secs

     total energy              =     -15.85056057 Ry
     Harris-Foulkes estimate   =     -15.85056062 Ry
     estimated scf accuracy    <       0.00000011 Ry

     iteration #  6     ecut=    30.00 Ry     beta= 0.70
     Davidson diagonalization with overlap
     ethr =  1.38E-09,  avg # of iterations =  2.6

     total cpu time spent up to now is        0.3 secs

     total energy              =     -15.85056060 Ry
     Harris-Foulkes estimate   =     -15.85056061 Ry
     estimated scf accuracy    <          1.3E-09 Ry

     iteration #  7     ecut=    30.00 Ry     beta= 0.70
     Davidson diagonalization with overlap
     ethr =  1.57E-11,  avg # of iterations =  3.1

     total cpu time spent up to now is        0.3 secs

     total energy              =     -15.85056061 Ry
     Harris-Foulkes estimate   =     -15.85056061 Ry
     estimated scf accuracy    <          3.7E-12 Ry

     iteration #  8     ecut=    30.00 Ry     beta= 0.70
     Davidson diagonalization with overlap
     ethr =  1.00E-13,  avg # of iterations =  3.2

     total cpu time spent up to now is        0.4 secs

     total energy              =     -15.85056061 Ry
     Harris-Foulkes estimate   =     -15.85056061 Ry
     estimated scf accuracy    <          1.3E-11 Ry

     iteration #  9     ecut=    30.00 Ry     beta= 0.70
     Davidson diagonalization with overlap
     ethr =  1.00E-13,  avg # of iterations =  2.0

     total cpu time spent up to now is        0.4 secs

     End of self-consistent calculation

          k = 0.0000 0.0000 0.0000 (   725 PWs)   bands (ev):

    -5.8155   6.2376   6.2376   6.2376

          k =-0.1667 0.1667-0.1667 (   730 PWs)   bands (ev):

    -5.4484   3.8477   5.7796   5.7796

          k =-0.3333 0.3333-0.3333 (   751 PWs)   bands (ev):

    -4.4122   0.8538   5.2229   5.2229

          k = 0.5000-0.5000 0.5000 (   754 PWs)   bands (ev):

    -3.4235  -0.8241   5.0226   5.0226

          k = 0.0000 0.3333 0.0000 (   737 PWs)   bands (ev):

    -5.3237   4.2296   5.0207   5.0207

          k =-0.1667 0.5000-0.1667 (   742 PWs)   bands (ev):

    -4.4936   1.7900   4.2160   4.4590

          k = 0.6667-0.3333 0.6667 (   732 PWs)   bands (ev):

    -3.2684  -0.4310   3.4190   4.4305

          k = 0.5000-0.1667 0.5000 (   734 PWs)   bands (ev):

    -3.6665   0.1856   3.1363   4.9204

          k = 0.3333 0.0000 0.3333 (   740 PWs)   bands (ev):

    -4.8497   2.5213   3.7682   5.6671

          k = 0.0000 0.6667 0.0000 (   717 PWs)   bands (ev):

    -3.8799   1.2436   3.7744   3.7744

          k = 0.8333-0.1667 0.8333 (   737 PWs)   bands (ev):

    -2.6919  -0.3317   2.5171   3.6361

          k = 0.6667-0.0000 0.6667 (   730 PWs)   bands (ev):

    -2.4810  -0.5492   1.7102   4.0881

          k = 0.0000-1.0000 0.0000 (   740 PWs)   bands (ev):

    -1.6023  -1.6023   3.3318   3.3318

          k = 0.6667-0.3333 1.0000 (   740 PWs)   bands (ev):

    -3.4838   0.5956   2.5837   3.8921

          k = 0.5000-0.1667 0.8333 (   734 PWs)   bands (ev):

    -2.4695  -0.6336   2.1382   3.4096

          k =-0.3333-1.0000 0.0000 (   738 PWs)   bands (ev):

    -1.4718  -1.4718   2.5013   2.5013

     highest occupied level (ev):     6.2376

!    total energy              =     -15.85056061 Ry
     Harris-Foulkes estimate   =     -15.85056061 Ry
     estimated scf accuracy    <          5.2E-15 Ry

     The total energy is the sum of the following terms:

     one-electron contribution =       4.78531145 Ry
     hartree contribution      =       1.08266311 Ry
     xc contribution           =      -4.81877656 Ry
     ewald contribution        =     -16.89975860 Ry

     convergence has been achieved in   9 iterations

     Forces acting on atoms (cartesian axes, Ry/au):

     atom    1 type  1   force =     0.00000000    0.00000000    0.00000000
     atom    2 type  1   force =     0.00000000    0.00000000    0.00000000

     Total force =     0.000000     Total SCF correction =     0.000000


     Computing stress (Cartesian axis) and pressure

          total   stress  (Ry/bohr**3)                   (kbar)     P=        1.57
   0.00001068  -0.00000000  -0.00000000            1.57       -0.00       -0.00
  -0.00000000   0.00001068   0.00000000           -0.00        1.57        0.00
  -0.00000000   0.00000000   0.00001068           -0.00        0.00        1.57


     Writing output data file ./out/silicon.save/

     init_run     :      0.03s CPU      0.03s WALL (       1 calls)
     electrons    :      0.30s CPU      0.30s WALL (       1 calls)
     forces       :      0.00s CPU      0.00s WALL (       1 calls)
     stress       :      0.01s CPU      0.01s WALL (       1 calls)

     Called by init_run:
     wfcinit      :      0.01s CPU      0.01s WALL (       1 calls)
     potinit      :      0.00s CPU      0.00s WALL (       1 calls)
     hinit0       :      0.01s CPU      0.01s WALL (       1 calls)

     Called by electrons:
     c_bands      :      0.20s CPU      0.20s WALL (      10 calls)
     sum_band     :      0.06s CPU      0.06s WALL (      10 calls)
     v_of_rho     :      0.02s CPU      0.02s WALL (      10 calls)
     mix_rho      :      0.01s CPU      0.01s WALL (      10 calls)

     Called by c_bands:
     init_us_2    :      0.01s CPU      0.01s WALL (      92 calls)
     cegterg      :      0.18s CPU      0.18s WALL (      40 calls)

     Called by sum_band:

     Called by *egterg:
     h_psi        :      0.17s CPU      0.17s WALL (     138 calls)
     g_psi        :      0.00s CPU      0.00s WALL (      94 calls)
     cdiaghg      :      0.00s CPU      0.00s WALL (     130 calls)

     Called by h_psi:
     h_psi:calbec :      0.00s CPU      0.00s WALL (     138 calls)
     vloc_psi     :      0.17s CPU      0.17s WALL (     138 calls)
     add_vuspsi   :      0.00s CPU      0.00s WALL (     138 calls)

     General routines
     calbec       :      0.00s CPU      0.00s WALL (     158 calls)
     fft          :      0.01s CPU      0.01s WALL (      35 calls)
     ffts         :      0.00s CPU      0.00s WALL (      10 calls)
     fftw         :      0.16s CPU      0.16s WALL (    1164 calls)

     Parallel routines

     PWSCF        :      0.40s CPU      0.41s WALL


   This run was terminated on:  13:56:13   2Nov2020            

=------------------------------------------------------------------------------=
   JOB DONE.
=------------------------------------------------------------------------------=
