
     Program PHONON v.6.6 starts on  2Jun2021 at 12: 3: 8 

     This program is part of the open-source Quantum ESPRESSO suite
     for quantum simulation of materials; please cite
         "P. Giannozzi et al., J. Phys.:Condens. Matter 21 395502 (2009);
         "P. Giannozzi et al., J. Phys.:Condens. Matter 29 465901 (2017);
          URL http://www.quantum-espresso.org", 
     in publications or presentations arising from this work. More details at
     http://www.quantum-espresso.org/quote

     Parallel version (MPI), running on     4 processors

     MPI processes distributed on     1 nodes
     K-points division:     npool     =       4
     Fft bands division:     nmany     =       1

     Reading xml data from directory:

     ./out/silicon.save/

     IMPORTANT: XC functional enforced from input :
     Exchange-correlation= PZ
                           (   1   1   0   0   0   0   0)
     Any further DFT definition will be discarded
     Please, verify this is what you really want


     G-vector sticks info
     --------------------
     sticks:   dense  smooth     PW     G-vecs:    dense   smooth      PW
     Sum         433     433    139                 5961     5961    1067

     Reading collected, re-writing distributed wavefunctions


     Dynamical matrices for ( 6, 6, 6)  uniform grid of q-points
     (  16 q-points):
       N         xq(1)         xq(2)         xq(3) 
       1   0.000000000   0.000000000   0.000000000
       2  -0.166666667   0.166666667  -0.166666667
       3  -0.333333333   0.333333333  -0.333333333
       4   0.500000000  -0.500000000   0.500000000
       5   0.000000000   0.333333333   0.000000000
       6  -0.166666667   0.500000000  -0.166666667
       7   0.666666667  -0.333333333   0.666666667
       8   0.500000000  -0.166666667   0.500000000
       9   0.333333333   0.000000000   0.333333333
      10   0.000000000   0.666666667   0.000000000
      11   0.833333333  -0.166666667   0.833333333
      12   0.666666667  -0.000000000   0.666666667
      13   0.000000000  -1.000000000   0.000000000
      14   0.666666667  -0.333333333   1.000000000
      15   0.500000000  -0.166666667   0.833333333
      16  -0.333333333  -1.000000000   0.000000000

     Saving dvscf to file. Distribute only q points, not irreducible represetations.

     Calculation of q =    0.0000000   0.0000000   0.0000000

     phonons of Si                                                              

     bravais-lattice index     =            2
     lattice parameter (alat)  =      10.2000  a.u.
     unit-cell volume          =     265.3020 (a.u.)^3
     number of atoms/cell      =            2
     number of atomic types    =            1
     kinetic-energy cut-off    =      30.0000  Ry
     charge density cut-off    =     120.0000  Ry
     convergence threshold     =      1.0E-14
     beta                      =       0.7000
     number of iterations used =            4
     Exchange-correlation= PZ
                           (   1   1   0   0   0   0   0)


     celldm(1)=   10.20000  celldm(2)=    0.00000  celldm(3)=    0.00000
     celldm(4)=    0.00000  celldm(5)=    0.00000  celldm(6)=    0.00000

     crystal axes: (cart. coord. in units of alat)
               a(1) = ( -0.5000  0.0000  0.5000 )  
               a(2) = (  0.0000  0.5000  0.5000 )  
               a(3) = ( -0.5000  0.5000  0.0000 )  

     reciprocal axes: (cart. coord. in units 2 pi/alat)
               b(1) = ( -1.0000 -1.0000  1.0000 )  
               b(2) = (  1.0000  1.0000  1.0000 )  
               b(3) = ( -1.0000  1.0000 -1.0000 )  


     Atoms inside the unit cell: 

     Cartesian axes

     site n.  atom      mass           positions (alat units)
        1     Si  28.0860   tau(    1) = (    0.00000    0.00000    0.00000  )
        2     Si  28.0860   tau(    2) = (    0.25000    0.25000    0.25000  )

     Computing dynamical matrix for 
                    q = (   0.0000000   0.0000000   0.0000000 )

     49 Sym.Ops. (with q -> -q+G )


     G cutoff =  316.2437  (   5961 G-vectors)     FFT grid: ( 32, 32, 32)
     number of k points=    16

     PseudoPot. # 1 for Si read from file:
     ../../pseudoPotentials/Si.pz-vbc.UPF
     MD5 check sum: 9f25e6ff280f3123e9b3a84715b2e9c9
     Pseudo is Norm-conserving, Zval =  4.0
     Generated by new atomic code, or converted to UPF format
     Using radial grid of  431 points,  2 beta functions with: 
                l(1) =   0
                l(2) =   1

     Mode symmetry, O_h (m-3m)  point group:


     Electric field:
     Dielectric constant
     Born effective charges in two ways 


     Atomic displacements:
     There are    2 irreducible representations

     Representation     1      3 modes -  To be done

     Representation     2      3 modes -  To be done



     Alpha used in Ewald sum =   1.3000
     PHONON       :      0.48s CPU      0.46s WALL


     Electric Fields Calculation

      iter #   1 total cpu time :     2.5 secs   av.it.:   6.9
      thresh= 1.000E-02 alpha_mix =  0.700 |ddv_scf|^2 =  2.254E-07

      iter #   2 total cpu time :     3.2 secs   av.it.:  10.5
      thresh= 4.747E-05 alpha_mix =  0.700 |ddv_scf|^2 =  8.864E-09

      iter #   3 total cpu time :     4.0 secs   av.it.:  10.2
      thresh= 9.415E-06 alpha_mix =  0.700 |ddv_scf|^2 =  1.048E-10

      iter #   4 total cpu time :     4.9 secs   av.it.:  10.5
      thresh= 1.024E-06 alpha_mix =  0.700 |ddv_scf|^2 =  4.678E-13

      iter #   5 total cpu time :     5.7 secs   av.it.:  10.4
      thresh= 6.840E-08 alpha_mix =  0.700 |ddv_scf|^2 =  4.234E-16

     End of electric fields calculation

          Dielectric constant in cartesian axis 

          (      16.292217040       0.000000000      -0.000000000 )
          (       0.000000000      16.292217040      -0.000000000 )
          (      -0.000000000      -0.000000000      16.292217040 )

          Effective charges (d Force / dE) in cartesian axis

           atom      1   Si 
      Ex  (       -0.31842       -0.00000       -0.00000 )
      Ey  (       -0.00000       -0.31842        0.00000 )
      Ez  (       -0.00000        0.00000       -0.31842 )
           atom      2   Si 
      Ex  (       -0.31842        0.00000        0.00000 )
      Ey  (        0.00000       -0.31842        0.00000 )
      Ez  (       -0.00000        0.00000       -0.31842 )


     Representation #   1 modes #   1   2   3

     Self-consistent Calculation

      iter #   1 total cpu time :     7.6 secs   av.it.:   5.0
      thresh= 1.000E-02 alpha_mix =  0.700 |ddv_scf|^2 =  4.653E-08

      iter #   2 total cpu time :     8.5 secs   av.it.:  10.2
      thresh= 2.157E-05 alpha_mix =  0.700 |ddv_scf|^2 =  8.345E-10

      iter #   3 total cpu time :     9.7 secs   av.it.:  10.2
      thresh= 2.889E-06 alpha_mix =  0.700 |ddv_scf|^2 =  1.094E-11

      iter #   4 total cpu time :    10.8 secs   av.it.:   9.9
      thresh= 3.308E-07 alpha_mix =  0.700 |ddv_scf|^2 =  8.661E-15

     End of self-consistent calculation

     Convergence has been achieved 


     Representation #   2 modes #   4   5   6

     Self-consistent Calculation

      iter #   1 total cpu time :    12.3 secs   av.it.:   5.2
      thresh= 1.000E-02 alpha_mix =  0.700 |ddv_scf|^2 =  3.306E-08

      iter #   2 total cpu time :    13.3 secs   av.it.:  10.3
      thresh= 1.818E-05 alpha_mix =  0.700 |ddv_scf|^2 =  1.240E-09

      iter #   3 total cpu time :    14.5 secs   av.it.:  10.3
      thresh= 3.521E-06 alpha_mix =  0.700 |ddv_scf|^2 =  1.392E-11

      iter #   4 total cpu time :    15.4 secs   av.it.:  10.2
      thresh= 3.731E-07 alpha_mix =  0.700 |ddv_scf|^2 =  2.971E-14

      iter #   5 total cpu time :    16.4 secs   av.it.:  10.5
      thresh= 1.724E-08 alpha_mix =  0.700 |ddv_scf|^2 =  4.065E-16

     End of self-consistent calculation

     Convergence has been achieved 

     Number of q in the star =    1
     List of q in the star:
          1   0.000000000   0.000000000   0.000000000

          Dielectric constant in cartesian axis 

          (      16.292217040       0.000000000      -0.000000000 )
          (       0.000000000      16.292217040      -0.000000000 )
          (      -0.000000000      -0.000000000      16.292217040 )

          Effective charges (d Force / dE) in cartesian axis

           atom      1   Si 
      Ex  (       -0.31842       -0.00000       -0.00000 )
      Ey  (       -0.00000       -0.31842        0.00000 )
      Ez  (       -0.00000        0.00000       -0.31842 )
           atom      2   Si 
      Ex  (       -0.31842        0.00000        0.00000 )
      Ey  (        0.00000       -0.31842        0.00000 )
      Ez  (       -0.00000        0.00000       -0.31842 )

          Effective charges (d P / du) in cartesian axis 

           atom      1   Si 
      Px  (       -0.31843       -0.00000        0.00000 )
      Py  (        0.00000       -0.31843        0.00000 )
      Pz  (        0.00000        0.00000       -0.31843 )
           atom      2   Si 
      Px  (       -0.31843        0.00000        0.00000 )
      Py  (        0.00000       -0.31843       -0.00000 )
      Pz  (       -0.00000       -0.00000       -0.31843 )

     Diagonalizing the dynamical matrix

     q = (    0.000000000   0.000000000   0.000000000 ) 

 **************************************************************************
     freq (    1) =      -0.107956 [THz] =      -3.601010 [cm-1]
     freq (    2) =      -0.107956 [THz] =      -3.601010 [cm-1]
     freq (    3) =      -0.107956 [THz] =      -3.601010 [cm-1]
     freq (    4) =      15.347722 [THz] =     511.944913 [cm-1]
     freq (    5) =      15.347722 [THz] =     511.944913 [cm-1]
     freq (    6) =      15.347722 [THz] =     511.944913 [cm-1]
 **************************************************************************

     Mode symmetry, O_h (m-3m)  point group:

     freq (   1-   3) =         -3.6  [cm-1]   --> T_1u G_15  G_4- I  
     freq (   4-   6) =        511.9  [cm-1]   --> T_2g G_25' G_5+ R  

     Calculation of q =   -0.1666667   0.1666667  -0.1666667

     Subspace diagonalization in iterative solution of the eigenvalue problem:
     a serial algorithm will be used

     Message from routine kpoint_grid:
     ATTENTION: skip check of k-points equivalence

     G-vector sticks info
     --------------------
     sticks:   dense  smooth     PW     G-vecs:    dense   smooth      PW
     Sum         433     433    151                 5961     5961    1243


     Title: 
     phonons of Si                                                              


     bravais-lattice index     =            2
     lattice parameter (alat)  =      10.2000  a.u.
     unit-cell volume          =     265.3020 (a.u.)^3
     number of atoms/cell      =            2
     number of atomic types    =            1
     number of electrons       =         8.00
     number of Kohn-Sham states=           12
     kinetic-energy cutoff     =      30.0000  Ry
     charge density cutoff     =     120.0000  Ry
     Exchange-correlation= PZ
                           (   1   1   0   0   0   0   0)

     celldm(1)=  10.200000  celldm(2)=   0.000000  celldm(3)=   0.000000
     celldm(4)=   0.000000  celldm(5)=   0.000000  celldm(6)=   0.000000

     crystal axes: (cart. coord. in units of alat)
               a(1) = (  -0.500000   0.000000   0.500000 )  
               a(2) = (   0.000000   0.500000   0.500000 )  
               a(3) = (  -0.500000   0.500000   0.000000 )  

     reciprocal axes: (cart. coord. in units 2 pi/alat)
               b(1) = ( -1.000000 -1.000000  1.000000 )  
               b(2) = (  1.000000  1.000000  1.000000 )  
               b(3) = ( -1.000000  1.000000 -1.000000 )  


     PseudoPot. # 1 for Si read from file:
     ../../pseudoPotentials/Si.pz-vbc.UPF
     MD5 check sum: 9f25e6ff280f3123e9b3a84715b2e9c9
     Pseudo is Norm-conserving, Zval =  4.0
     Generated by new atomic code, or converted to UPF format
     Using radial grid of  431 points,  2 beta functions with: 
                l(1) =   0
                l(2) =   1

     atomic species   valence    mass     pseudopotential
        Si             4.00    28.08600     Si( 1.00)

     48 Sym. Ops., with inversion, found



   Cartesian axes

     site n.     atom                  positions (alat units)
         1           Si  tau(   1) = (   0.0000000   0.0000000   0.0000000  )
         2           Si  tau(   2) = (   0.2500000   0.2500000   0.2500000  )

     number of k points=   432

     Number of k-points >= 100: set verbosity='high' to print them.

     Dense  grid:     5961 G-vectors     FFT dimensions: (  32,  32,  32)

     Estimated max dynamical RAM per process >       4.42 MB

     Estimated total dynamical RAM >      17.68 MB

     The potential is recalculated from file :
     ./out/_ph0/silicon.q_2/silicon.save/charge-density

     Starting wfcs are    8 atomic +    4 random wfcs

     Band Structure Calculation
     Davidson diagonalization with overlap

     ethr =  1.25E-10,  avg # of iterations = 20.0

     total cpu time spent up to now is       67.5 secs

     End of band structure calculation

     Number of k-points >= 100: set verbosity='high' to print the bands.

     highest occupied, lowest unoccupied level (ev):     6.2376    6.8644

     Writing output data file ./out/_ph0/silicon.q_2/silicon.save/

     phonons of Si                                                              

     bravais-lattice index     =            2
     lattice parameter (alat)  =      10.2000  a.u.
     unit-cell volume          =     265.3020 (a.u.)^3
     number of atoms/cell      =            2
     number of atomic types    =            1
     kinetic-energy cut-off    =      30.0000  Ry
     charge density cut-off    =     120.0000  Ry
     convergence threshold     =      1.0E-14
     beta                      =       0.7000
     number of iterations used =            4
     Exchange-correlation= PZ
                           (   1   1   0   0   0   0   0)


     celldm(1)=   10.20000  celldm(2)=    0.00000  celldm(3)=    0.00000
     celldm(4)=    0.00000  celldm(5)=    0.00000  celldm(6)=    0.00000

     crystal axes: (cart. coord. in units of alat)
               a(1) = ( -0.5000  0.0000  0.5000 )  
               a(2) = (  0.0000  0.5000  0.5000 )  
               a(3) = ( -0.5000  0.5000  0.0000 )  

     reciprocal axes: (cart. coord. in units 2 pi/alat)
               b(1) = ( -1.0000 -1.0000  1.0000 )  
               b(2) = (  1.0000  1.0000  1.0000 )  
               b(3) = ( -1.0000  1.0000 -1.0000 )  


     Atoms inside the unit cell: 

     Cartesian axes

     site n.  atom      mass           positions (alat units)
        1     Si  28.0860   tau(    1) = (    0.00000    0.00000    0.00000  )
        2     Si  28.0860   tau(    2) = (    0.25000    0.25000    0.25000  )

     Computing dynamical matrix for 
                    q = (  -0.1666667   0.1666667  -0.1666667 )

      6 Sym.Ops. (no q -> -q+G )


     G cutoff =  316.2437  (   5961 G-vectors)     FFT grid: ( 32, 32, 32)
     number of k points=   432

     PseudoPot. # 1 for Si read from file:
     ../../pseudoPotentials/Si.pz-vbc.UPF
     MD5 check sum: 9f25e6ff280f3123e9b3a84715b2e9c9
     Pseudo is Norm-conserving, Zval =  4.0
     Generated by new atomic code, or converted to UPF format
     Using radial grid of  431 points,  2 beta functions with: 
                l(1) =   0
                l(2) =   1

     Mode symmetry, C_3v (3m)   point group:


     Atomic displacements:
     There are    4 irreducible representations

     Representation     1      1 modes -  To be done

     Representation     2      1 modes -  To be done

     Representation     3      2 modes -  To be done

     Representation     4      2 modes -  To be done



     Alpha used in Ewald sum =   1.3000
     PHONON       :   1m21.21s CPU   1m25.60s WALL



     Representation #   1 mode #   1

     Self-consistent Calculation

      iter #   1 total cpu time :    90.9 secs   av.it.:   5.9
      thresh= 1.000E-02 alpha_mix =  0.700 |ddv_scf|^2 =  2.766E-03

      iter #   2 total cpu time :    94.0 secs   av.it.:   7.8
      thresh= 5.260E-03 alpha_mix =  0.700 |ddv_scf|^2 =  8.188E-02

      iter #   3 total cpu time :    96.6 secs   av.it.:   6.9
      thresh= 1.000E-02 alpha_mix =  0.700 |ddv_scf|^2 =  8.781E-07

      iter #   4 total cpu time :    99.4 secs   av.it.:   8.2
      thresh= 9.371E-05 alpha_mix =  0.700 |ddv_scf|^2 =  7.730E-08

      iter #   5 total cpu time :   102.1 secs   av.it.:   8.0
      thresh= 2.780E-05 alpha_mix =  0.700 |ddv_scf|^2 =  1.413E-09

      iter #   6 total cpu time :   104.9 secs   av.it.:   6.8
      thresh= 3.759E-06 alpha_mix =  0.700 |ddv_scf|^2 =  7.694E-10

      iter #   7 total cpu time :   107.6 secs   av.it.:   7.4
      thresh= 2.774E-06 alpha_mix =  0.700 |ddv_scf|^2 =  2.174E-11

      iter #   8 total cpu time :   110.6 secs   av.it.:   7.9
      thresh= 4.662E-07 alpha_mix =  0.700 |ddv_scf|^2 =  1.092E-12

      iter #   9 total cpu time :   113.3 secs   av.it.:   6.8
      thresh= 1.045E-07 alpha_mix =  0.700 |ddv_scf|^2 =  5.223E-15

     End of self-consistent calculation

     Convergence has been achieved 


     Representation #   2 mode #   2

     Self-consistent Calculation

      iter #   1 total cpu time :   119.4 secs   av.it.:   5.9
      thresh= 1.000E-02 alpha_mix =  0.700 |ddv_scf|^2 =  2.766E-03

      iter #   2 total cpu time :   122.2 secs   av.it.:   7.8
      thresh= 5.260E-03 alpha_mix =  0.700 |ddv_scf|^2 =  8.188E-02

      iter #   3 total cpu time :   125.0 secs   av.it.:   6.9
      thresh= 1.000E-02 alpha_mix =  0.700 |ddv_scf|^2 =  8.783E-07

      iter #   4 total cpu time :   127.9 secs   av.it.:   8.2
      thresh= 9.372E-05 alpha_mix =  0.700 |ddv_scf|^2 =  7.775E-08

      iter #   5 total cpu time :   130.6 secs   av.it.:   7.9
      thresh= 2.788E-05 alpha_mix =  0.700 |ddv_scf|^2 =  2.987E-09

      iter #   6 total cpu time :   133.1 secs   av.it.:   6.5
      thresh= 5.466E-06 alpha_mix =  0.700 |ddv_scf|^2 =  3.454E-10

      iter #   7 total cpu time :   135.7 secs   av.it.:   7.9
      thresh= 1.858E-06 alpha_mix =  0.700 |ddv_scf|^2 =  2.266E-11

      iter #   8 total cpu time :   138.6 secs   av.it.:   7.9
      thresh= 4.760E-07 alpha_mix =  0.700 |ddv_scf|^2 =  1.067E-12

      iter #   9 total cpu time :   141.3 secs   av.it.:   6.8
      thresh= 1.033E-07 alpha_mix =  0.700 |ddv_scf|^2 =  5.139E-15

     End of self-consistent calculation

     Convergence has been achieved 


     Representation #   3 modes #   3   4

     Self-consistent Calculation

      iter #   1 total cpu time :   151.9 secs   av.it.:   5.1
      thresh= 1.000E-02 alpha_mix =  0.700 |ddv_scf|^2 =  1.087E-07

      iter #   2 total cpu time :   157.9 secs   av.it.:  10.3
      thresh= 3.297E-05 alpha_mix =  0.700 |ddv_scf|^2 =  4.632E-09

      iter #   3 total cpu time :   164.9 secs   av.it.:  10.1
      thresh= 6.806E-06 alpha_mix =  0.700 |ddv_scf|^2 =  3.645E-11

      iter #   4 total cpu time :   172.0 secs   av.it.:  10.1
      thresh= 6.037E-07 alpha_mix =  0.700 |ddv_scf|^2 =  2.249E-12

      iter #   5 total cpu time :   178.8 secs   av.it.:  10.0
      thresh= 1.500E-07 alpha_mix =  0.700 |ddv_scf|^2 =  3.856E-15

     End of self-consistent calculation

     Convergence has been achieved 


     Representation #   4 modes #   5   6

     Self-consistent Calculation

      iter #   1 total cpu time :   189.0 secs   av.it.:   5.2
      thresh= 1.000E-02 alpha_mix =  0.700 |ddv_scf|^2 =  1.087E-07

      iter #   2 total cpu time :   194.7 secs   av.it.:  10.3
      thresh= 3.297E-05 alpha_mix =  0.700 |ddv_scf|^2 =  4.634E-09

      iter #   3 total cpu time :   200.4 secs   av.it.:  10.2
      thresh= 6.807E-06 alpha_mix =  0.700 |ddv_scf|^2 =  3.645E-11

      iter #   4 total cpu time :   206.1 secs   av.it.:  10.1
      thresh= 6.037E-07 alpha_mix =  0.700 |ddv_scf|^2 =  2.249E-12

      iter #   5 total cpu time :   211.6 secs   av.it.:  10.1
      thresh= 1.500E-07 alpha_mix =  0.700 |ddv_scf|^2 =  3.852E-15

     End of self-consistent calculation

     Convergence has been achieved 

     Number of q in the star =    8
     List of q in the star:
          1  -0.166666667   0.166666667  -0.166666667
          2   0.166666667   0.166666667   0.166666667
          3  -0.166666667  -0.166666667  -0.166666667
          4   0.166666667  -0.166666667   0.166666667
          5   0.166666667  -0.166666667  -0.166666667
          6   0.166666667   0.166666667  -0.166666667
          7  -0.166666667  -0.166666667   0.166666667
          8  -0.166666667   0.166666667   0.166666667

     Diagonalizing the dynamical matrix

     q = (   -0.166666667   0.166666667  -0.166666667 ) 

 **************************************************************************
     freq (    1) =       2.227945 [THz] =      74.316248 [cm-1]
     freq (    2) =       2.227945 [THz] =      74.316248 [cm-1]
     freq (    3) =       4.749215 [THz] =     158.416763 [cm-1]
     freq (    4) =      14.997278 [THz] =     500.255359 [cm-1]
     freq (    5) =      14.999764 [THz] =     500.338263 [cm-1]
     freq (    6) =      14.999764 [THz] =     500.338263 [cm-1]
 **************************************************************************

     Mode symmetry, C_3v (3m)   point group:

     freq (   1-   2) =         74.3  [cm-1]   --> E    L_3           
     freq (   3-   3) =        158.4  [cm-1]   --> A_1  L_1           
     freq (   4-   4) =        500.3  [cm-1]   --> A_1  L_1           
     freq (   5-   6) =        500.3  [cm-1]   --> E    L_3           

     Calculation of q =   -0.3333333   0.3333333  -0.3333333
     Message from routine kpoint_grid:
     ATTENTION: skip check of k-points equivalence

     G-vector sticks info
     --------------------
     sticks:   dense  smooth     PW     G-vecs:    dense   smooth      PW
     Sum         433     433    163                 5961     5961    1363


     Title: 
     phonons of Si                                                              


     bravais-lattice index     =            2
     lattice parameter (alat)  =      10.2000  a.u.
     unit-cell volume          =     265.3020 (a.u.)^3
     number of atoms/cell      =            2
     number of atomic types    =            1
     number of electrons       =         8.00
     number of Kohn-Sham states=           12
     kinetic-energy cutoff     =      30.0000  Ry
     charge density cutoff     =     120.0000  Ry
     Exchange-correlation= PZ
                           (   1   1   0   0   0   0   0)

     celldm(1)=  10.200000  celldm(2)=   0.000000  celldm(3)=   0.000000
     celldm(4)=   0.000000  celldm(5)=   0.000000  celldm(6)=   0.000000

     crystal axes: (cart. coord. in units of alat)
               a(1) = (  -0.500000   0.000000   0.500000 )  
               a(2) = (   0.000000   0.500000   0.500000 )  
               a(3) = (  -0.500000   0.500000   0.000000 )  

     reciprocal axes: (cart. coord. in units 2 pi/alat)
               b(1) = ( -1.000000 -1.000000  1.000000 )  
               b(2) = (  1.000000  1.000000  1.000000 )  
               b(3) = ( -1.000000  1.000000 -1.000000 )  


     PseudoPot. # 1 for Si read from file:
     ../../pseudoPotentials/Si.pz-vbc.UPF
     MD5 check sum: 9f25e6ff280f3123e9b3a84715b2e9c9
     Pseudo is Norm-conserving, Zval =  4.0
     Generated by new atomic code, or converted to UPF format
     Using radial grid of  431 points,  2 beta functions with: 
                l(1) =   0
                l(2) =   1

     atomic species   valence    mass     pseudopotential
        Si             4.00    28.08600     Si( 1.00)

     48 Sym. Ops., with inversion, found



   Cartesian axes

     site n.     atom                  positions (alat units)
         1           Si  tau(   1) = (   0.0000000   0.0000000   0.0000000  )
         2           Si  tau(   2) = (   0.2500000   0.2500000   0.2500000  )

     number of k points=   432

     Number of k-points >= 100: set verbosity='high' to print them.

     Dense  grid:     5961 G-vectors     FFT dimensions: (  32,  32,  32)

     Estimated max dynamical RAM per process >       4.42 MB

     Estimated total dynamical RAM >      17.68 MB

     The potential is recalculated from file :
     ./out/_ph0/silicon.q_3/silicon.save/charge-density

     Starting wfcs are    8 atomic +    4 random wfcs

     Band Structure Calculation
     Davidson diagonalization with overlap

     ethr =  1.25E-10,  avg # of iterations = 19.9

     total cpu time spent up to now is      128.9 secs

     End of band structure calculation

     Number of k-points >= 100: set verbosity='high' to print the bands.

     highest occupied, lowest unoccupied level (ev):     6.2376    6.8644

     Writing output data file ./out/_ph0/silicon.q_3/silicon.save/

     phonons of Si                                                              

     bravais-lattice index     =            2
     lattice parameter (alat)  =      10.2000  a.u.
     unit-cell volume          =     265.3020 (a.u.)^3
     number of atoms/cell      =            2
     number of atomic types    =            1
     kinetic-energy cut-off    =      30.0000  Ry
     charge density cut-off    =     120.0000  Ry
     convergence threshold     =      1.0E-14
     beta                      =       0.7000
     number of iterations used =            4
     Exchange-correlation= PZ
                           (   1   1   0   0   0   0   0)


     celldm(1)=   10.20000  celldm(2)=    0.00000  celldm(3)=    0.00000
     celldm(4)=    0.00000  celldm(5)=    0.00000  celldm(6)=    0.00000

     crystal axes: (cart. coord. in units of alat)
               a(1) = ( -0.5000  0.0000  0.5000 )  
               a(2) = (  0.0000  0.5000  0.5000 )  
               a(3) = ( -0.5000  0.5000  0.0000 )  

     reciprocal axes: (cart. coord. in units 2 pi/alat)
               b(1) = ( -1.0000 -1.0000  1.0000 )  
               b(2) = (  1.0000  1.0000  1.0000 )  
               b(3) = ( -1.0000  1.0000 -1.0000 )  


     Atoms inside the unit cell: 

     Cartesian axes

     site n.  atom      mass           positions (alat units)
        1     Si  28.0860   tau(    1) = (    0.00000    0.00000    0.00000  )
        2     Si  28.0860   tau(    2) = (    0.25000    0.25000    0.25000  )

     Computing dynamical matrix for 
                    q = (  -0.3333333   0.3333333  -0.3333333 )

      6 Sym.Ops. (no q -> -q+G )


     G cutoff =  316.2437  (   5961 G-vectors)     FFT grid: ( 32, 32, 32)
     number of k points=   432

     PseudoPot. # 1 for Si read from file:
     ../../pseudoPotentials/Si.pz-vbc.UPF
     MD5 check sum: 9f25e6ff280f3123e9b3a84715b2e9c9
     Pseudo is Norm-conserving, Zval =  4.0
     Generated by new atomic code, or converted to UPF format
     Using radial grid of  431 points,  2 beta functions with: 
                l(1) =   0
                l(2) =   1

     Mode symmetry, C_3v (3m)   point group:


     Atomic displacements:
     There are    4 irreducible representations

     Representation     1      1 modes -  To be done

     Representation     2      1 modes -  To be done

     Representation     3      2 modes -  To be done

     Representation     4      2 modes -  To be done



     Alpha used in Ewald sum =   1.3000
     PHONON       :   4m53.03s CPU   4m37.99s WALL



     Representation #   1 mode #   1

     Self-consistent Calculation

      iter #   1 total cpu time :   282.9 secs   av.it.:   5.9
      thresh= 1.000E-02 alpha_mix =  0.700 |ddv_scf|^2 =  1.901E-04

      iter #   2 total cpu time :   285.8 secs   av.it.:   8.7
      thresh= 1.379E-03 alpha_mix =  0.700 |ddv_scf|^2 =  1.474E-03

      iter #   3 total cpu time :   288.2 secs   av.it.:   7.3
      thresh= 3.839E-03 alpha_mix =  0.700 |ddv_scf|^2 =  2.961E-07

      iter #   4 total cpu time :   291.0 secs   av.it.:   8.9
      thresh= 5.441E-05 alpha_mix =  0.700 |ddv_scf|^2 =  5.051E-09

      iter #   5 total cpu time :   293.7 secs   av.it.:   8.8
      thresh= 7.107E-06 alpha_mix =  0.700 |ddv_scf|^2 =  3.837E-11

      iter #   6 total cpu time :   296.6 secs   av.it.:   9.4
      thresh= 6.195E-07 alpha_mix =  0.700 |ddv_scf|^2 =  1.942E-11

      iter #   7 total cpu time :   299.4 secs   av.it.:   8.7
      thresh= 4.406E-07 alpha_mix =  0.700 |ddv_scf|^2 =  3.756E-11

      iter #   8 total cpu time :   301.8 secs   av.it.:   7.6
      thresh= 6.129E-07 alpha_mix =  0.700 |ddv_scf|^2 =  1.261E-13

      iter #   9 total cpu time :   304.6 secs   av.it.:   8.7
      thresh= 3.552E-08 alpha_mix =  0.700 |ddv_scf|^2 =  3.145E-13

      iter #  10 total cpu time :   307.1 secs   av.it.:   7.6
      thresh= 5.608E-08 alpha_mix =  0.700 |ddv_scf|^2 =  7.041E-17

     End of self-consistent calculation

     Convergence has been achieved 


     Representation #   2 mode #   2

     Self-consistent Calculation

      iter #   1 total cpu time :   312.6 secs   av.it.:   5.9
      thresh= 1.000E-02 alpha_mix =  0.700 |ddv_scf|^2 =  1.901E-04

      iter #   2 total cpu time :   315.4 secs   av.it.:   8.7
      thresh= 1.379E-03 alpha_mix =  0.700 |ddv_scf|^2 =  1.474E-03

      iter #   3 total cpu time :   317.9 secs   av.it.:   7.3
      thresh= 3.839E-03 alpha_mix =  0.700 |ddv_scf|^2 =  2.960E-07

      iter #   4 total cpu time :   320.7 secs   av.it.:   8.8
      thresh= 5.440E-05 alpha_mix =  0.700 |ddv_scf|^2 =  5.043E-09

      iter #   5 total cpu time :   323.6 secs   av.it.:   8.8
      thresh= 7.101E-06 alpha_mix =  0.700 |ddv_scf|^2 =  4.006E-11

      iter #   6 total cpu time :   326.5 secs   av.it.:   9.4
      thresh= 6.329E-07 alpha_mix =  0.700 |ddv_scf|^2 =  3.236E-11

      iter #   7 total cpu time :   329.1 secs   av.it.:   8.4
      thresh= 5.688E-07 alpha_mix =  0.700 |ddv_scf|^2 =  3.007E-11

      iter #   8 total cpu time :   331.5 secs   av.it.:   7.9
      thresh= 5.484E-07 alpha_mix =  0.700 |ddv_scf|^2 =  1.200E-13

      iter #   9 total cpu time :   334.3 secs   av.it.:   8.7
      thresh= 3.464E-08 alpha_mix =  0.700 |ddv_scf|^2 =  3.048E-13

      iter #  10 total cpu time :   336.7 secs   av.it.:   7.6
      thresh= 5.521E-08 alpha_mix =  0.700 |ddv_scf|^2 =  6.272E-17

     End of self-consistent calculation

     Convergence has been achieved 


     Representation #   3 modes #   3   4

     Self-consistent Calculation

      iter #   1 total cpu time :   346.6 secs   av.it.:   5.2
      thresh= 1.000E-02 alpha_mix =  0.700 |ddv_scf|^2 =  1.426E-07

      iter #   2 total cpu time :   352.8 secs   av.it.:  10.2
      thresh= 3.776E-05 alpha_mix =  0.700 |ddv_scf|^2 =  9.787E-09

      iter #   3 total cpu time :   358.6 secs   av.it.:  10.0
      thresh= 9.893E-06 alpha_mix =  0.700 |ddv_scf|^2 =  4.118E-11

      iter #   4 total cpu time :   364.4 secs   av.it.:  10.0
      thresh= 6.418E-07 alpha_mix =  0.700 |ddv_scf|^2 =  2.657E-12

      iter #   5 total cpu time :   370.4 secs   av.it.:   9.9
      thresh= 1.630E-07 alpha_mix =  0.700 |ddv_scf|^2 =  4.569E-15

     End of self-consistent calculation

     Convergence has been achieved 


     Representation #   4 modes #   5   6

     Self-consistent Calculation

      iter #   1 total cpu time :   380.4 secs   av.it.:   5.2
      thresh= 1.000E-02 alpha_mix =  0.700 |ddv_scf|^2 =  1.426E-07

      iter #   2 total cpu time :   385.9 secs   av.it.:  10.3
      thresh= 3.776E-05 alpha_mix =  0.700 |ddv_scf|^2 =  9.793E-09

      iter #   3 total cpu time :   391.7 secs   av.it.:  10.1
      thresh= 9.896E-06 alpha_mix =  0.700 |ddv_scf|^2 =  4.120E-11

      iter #   4 total cpu time :   397.6 secs   av.it.:  10.1
      thresh= 6.418E-07 alpha_mix =  0.700 |ddv_scf|^2 =  2.659E-12

      iter #   5 total cpu time :   403.4 secs   av.it.:  10.0
      thresh= 1.631E-07 alpha_mix =  0.700 |ddv_scf|^2 =  4.574E-15

     End of self-consistent calculation

     Convergence has been achieved 

     Number of q in the star =    8
     List of q in the star:
          1  -0.333333333   0.333333333  -0.333333333
          2   0.333333333   0.333333333   0.333333333
          3  -0.333333333  -0.333333333  -0.333333333
          4   0.333333333  -0.333333333   0.333333333
          5   0.333333333  -0.333333333  -0.333333333
          6   0.333333333   0.333333333  -0.333333333
          7  -0.333333333  -0.333333333   0.333333333
          8  -0.333333333   0.333333333   0.333333333

     Diagonalizing the dynamical matrix

     q = (   -0.333333333   0.333333333  -0.333333333 ) 

 **************************************************************************
     freq (    1) =       3.067928 [THz] =     102.335064 [cm-1]
     freq (    2) =       3.067928 [THz] =     102.335064 [cm-1]
     freq (    3) =       8.743487 [THz] =     291.651327 [cm-1]
     freq (    4) =      13.813878 [THz] =     460.781358 [cm-1]
     freq (    5) =      14.664904 [THz] =     489.168559 [cm-1]
     freq (    6) =      14.664904 [THz] =     489.168559 [cm-1]
 **************************************************************************

     Mode symmetry, C_3v (3m)   point group:

     freq (   1-   2) =        102.3  [cm-1]   --> E    L_3           
     freq (   3-   3) =        291.7  [cm-1]   --> A_1  L_1           
     freq (   4-   4) =        460.8  [cm-1]   --> A_1  L_1           
     freq (   5-   6) =        489.2  [cm-1]   --> E    L_3           

     Calculation of q =    0.5000000  -0.5000000   0.5000000
     Message from routine kpoint_grid:
     ATTENTION: skip check of k-points equivalence

     G-vector sticks info
     --------------------
     sticks:   dense  smooth     PW     G-vecs:    dense   smooth      PW
     Sum         433     433    163                 5961     5961    1411


     Title: 
     phonons of Si                                                              


     bravais-lattice index     =            2
     lattice parameter (alat)  =      10.2000  a.u.
     unit-cell volume          =     265.3020 (a.u.)^3
     number of atoms/cell      =            2
     number of atomic types    =            1
     number of electrons       =         8.00
     number of Kohn-Sham states=           12
     kinetic-energy cutoff     =      30.0000  Ry
     charge density cutoff     =     120.0000  Ry
     Exchange-correlation= PZ
                           (   1   1   0   0   0   0   0)

     celldm(1)=  10.200000  celldm(2)=   0.000000  celldm(3)=   0.000000
     celldm(4)=   0.000000  celldm(5)=   0.000000  celldm(6)=   0.000000

     crystal axes: (cart. coord. in units of alat)
               a(1) = (  -0.500000   0.000000   0.500000 )  
               a(2) = (   0.000000   0.500000   0.500000 )  
               a(3) = (  -0.500000   0.500000   0.000000 )  

     reciprocal axes: (cart. coord. in units 2 pi/alat)
               b(1) = ( -1.000000 -1.000000  1.000000 )  
               b(2) = (  1.000000  1.000000  1.000000 )  
               b(3) = ( -1.000000  1.000000 -1.000000 )  


     PseudoPot. # 1 for Si read from file:
     ../../pseudoPotentials/Si.pz-vbc.UPF
     MD5 check sum: 9f25e6ff280f3123e9b3a84715b2e9c9
     Pseudo is Norm-conserving, Zval =  4.0
     Generated by new atomic code, or converted to UPF format
     Using radial grid of  431 points,  2 beta functions with: 
                l(1) =   0
                l(2) =   1

     atomic species   valence    mass     pseudopotential
        Si             4.00    28.08600     Si( 1.00)

     48 Sym. Ops., with inversion, found



   Cartesian axes

     site n.     atom                  positions (alat units)
         1           Si  tau(   1) = (   0.0000000   0.0000000   0.0000000  )
         2           Si  tau(   2) = (   0.2500000   0.2500000   0.2500000  )

     number of k points=   432

     Number of k-points >= 100: set verbosity='high' to print them.

     Dense  grid:     5961 G-vectors     FFT dimensions: (  32,  32,  32)

     Estimated max dynamical RAM per process >       4.42 MB

     Estimated total dynamical RAM >      17.69 MB

     The potential is recalculated from file :
     ./out/_ph0/silicon.q_4/silicon.save/charge-density

     Starting wfcs are    8 atomic +    4 random wfcs

     Band Structure Calculation
     Davidson diagonalization with overlap

     ethr =  1.25E-10,  avg # of iterations = 20.0

     total cpu time spent up to now is      196.2 secs

     End of band structure calculation

     Number of k-points >= 100: set verbosity='high' to print the bands.

     highest occupied, lowest unoccupied level (ev):     6.2376    6.8644

     Writing output data file ./out/_ph0/silicon.q_4/silicon.save/

     phonons of Si                                                              

     bravais-lattice index     =            2
     lattice parameter (alat)  =      10.2000  a.u.
     unit-cell volume          =     265.3020 (a.u.)^3
     number of atoms/cell      =            2
     number of atomic types    =            1
     kinetic-energy cut-off    =      30.0000  Ry
     charge density cut-off    =     120.0000  Ry
     convergence threshold     =      1.0E-14
     beta                      =       0.7000
     number of iterations used =            4
     Exchange-correlation= PZ
                           (   1   1   0   0   0   0   0)


     celldm(1)=   10.20000  celldm(2)=    0.00000  celldm(3)=    0.00000
     celldm(4)=    0.00000  celldm(5)=    0.00000  celldm(6)=    0.00000

     crystal axes: (cart. coord. in units of alat)
               a(1) = ( -0.5000  0.0000  0.5000 )  
               a(2) = (  0.0000  0.5000  0.5000 )  
               a(3) = ( -0.5000  0.5000  0.0000 )  

     reciprocal axes: (cart. coord. in units 2 pi/alat)
               b(1) = ( -1.0000 -1.0000  1.0000 )  
               b(2) = (  1.0000  1.0000  1.0000 )  
               b(3) = ( -1.0000  1.0000 -1.0000 )  


     Atoms inside the unit cell: 

     Cartesian axes

     site n.  atom      mass           positions (alat units)
        1     Si  28.0860   tau(    1) = (    0.00000    0.00000    0.00000  )
        2     Si  28.0860   tau(    2) = (    0.25000    0.25000    0.25000  )

     Computing dynamical matrix for 
                    q = (   0.5000000  -0.5000000   0.5000000 )

     13 Sym.Ops. (with q -> -q+G )


     G cutoff =  316.2437  (   5961 G-vectors)     FFT grid: ( 32, 32, 32)
     number of k points=   432

     PseudoPot. # 1 for Si read from file:
     ../../pseudoPotentials/Si.pz-vbc.UPF
     MD5 check sum: 9f25e6ff280f3123e9b3a84715b2e9c9
     Pseudo is Norm-conserving, Zval =  4.0
     Generated by new atomic code, or converted to UPF format
     Using radial grid of  431 points,  2 beta functions with: 
                l(1) =   0
                l(2) =   1


     Atomic displacements:
     There are    4 irreducible representations

     Representation     1      1 modes -  To be done

     Representation     2      1 modes -  To be done

     Representation     3      2 modes -  To be done

     Representation     4      2 modes -  To be done



     Alpha used in Ewald sum =   1.3000
     PHONON       :   8m37.69s CPU   7m56.00s WALL



     Representation #   1 mode #   1

     Self-consistent Calculation

      iter #   1 total cpu time :   481.4 secs   av.it.:   5.0
      thresh= 1.000E-02 alpha_mix =  0.700 |ddv_scf|^2 =  5.764E-06

      iter #   2 total cpu time :   484.7 secs   av.it.:   8.9
      thresh= 2.401E-04 alpha_mix =  0.700 |ddv_scf|^2 =  4.794E-06

      iter #   3 total cpu time :   487.7 secs   av.it.:   8.3
      thresh= 2.189E-04 alpha_mix =  0.700 |ddv_scf|^2 =  5.065E-10

      iter #   4 total cpu time :   490.6 secs   av.it.:   8.5
      thresh= 2.251E-06 alpha_mix =  0.700 |ddv_scf|^2 =  1.058E-11

      iter #   5 total cpu time :   493.6 secs   av.it.:   8.6
      thresh= 3.253E-07 alpha_mix =  0.700 |ddv_scf|^2 =  8.673E-14

      iter #   6 total cpu time :   496.8 secs   av.it.:   8.5
      thresh= 2.945E-08 alpha_mix =  0.700 |ddv_scf|^2 =  1.145E-15

     End of self-consistent calculation

     Convergence has been achieved 


     Representation #   2 mode #   2

     Self-consistent Calculation

      iter #   1 total cpu time :   503.4 secs   av.it.:   5.9
      thresh= 1.000E-02 alpha_mix =  0.700 |ddv_scf|^2 =  9.731E-05

      iter #   2 total cpu time :   506.5 secs   av.it.:   9.0
      thresh= 9.865E-04 alpha_mix =  0.700 |ddv_scf|^2 =  3.169E-04

      iter #   3 total cpu time :   509.6 secs   av.it.:   7.9
      thresh= 1.780E-03 alpha_mix =  0.700 |ddv_scf|^2 =  9.112E-09

      iter #   4 total cpu time :   513.3 secs   av.it.:   9.1
      thresh= 9.546E-06 alpha_mix =  0.700 |ddv_scf|^2 =  2.427E-10

      iter #   5 total cpu time :   517.4 secs   av.it.:   9.2
      thresh= 1.558E-06 alpha_mix =  0.700 |ddv_scf|^2 =  1.878E-11

      iter #   6 total cpu time :   521.0 secs   av.it.:   8.6
      thresh= 4.334E-07 alpha_mix =  0.700 |ddv_scf|^2 =  1.389E-14

      iter #   7 total cpu time :   524.9 secs   av.it.:   9.0
      thresh= 1.179E-08 alpha_mix =  0.700 |ddv_scf|^2 =  1.494E-15

     End of self-consistent calculation

     Convergence has been achieved 


     Representation #   3 modes #   3   4

     Self-consistent Calculation

      iter #   1 total cpu time :   537.6 secs   av.it.:   5.3
      thresh= 1.000E-02 alpha_mix =  0.700 |ddv_scf|^2 =  2.833E-07

      iter #   2 total cpu time :   544.9 secs   av.it.:  10.1
      thresh= 5.323E-05 alpha_mix =  0.700 |ddv_scf|^2 =  2.437E-08

      iter #   3 total cpu time :   552.0 secs   av.it.:  10.0
      thresh= 1.561E-05 alpha_mix =  0.700 |ddv_scf|^2 =  3.610E-11

      iter #   4 total cpu time :   559.0 secs   av.it.:   9.8
      thresh= 6.008E-07 alpha_mix =  0.700 |ddv_scf|^2 =  1.028E-13

      iter #   5 total cpu time :   565.8 secs   av.it.:  10.0
      thresh= 3.206E-08 alpha_mix =  0.700 |ddv_scf|^2 =  4.842E-16

     End of self-consistent calculation

     Convergence has been achieved 


     Representation #   4 modes #   5   6

     Self-consistent Calculation

      iter #   1 total cpu time :   577.9 secs   av.it.:   4.9
      thresh= 1.000E-02 alpha_mix =  0.700 |ddv_scf|^2 =  3.271E-08

      iter #   2 total cpu time :   584.4 secs   av.it.:  10.1
      thresh= 1.809E-05 alpha_mix =  0.700 |ddv_scf|^2 =  6.551E-10

      iter #   3 total cpu time :   591.1 secs   av.it.:  10.1
      thresh= 2.559E-06 alpha_mix =  0.700 |ddv_scf|^2 =  2.519E-11

      iter #   4 total cpu time :   599.2 secs   av.it.:   9.9
      thresh= 5.019E-07 alpha_mix =  0.700 |ddv_scf|^2 =  3.972E-14

      iter #   5 total cpu time :   606.8 secs   av.it.:  10.2
      thresh= 1.993E-08 alpha_mix =  0.700 |ddv_scf|^2 =  4.971E-16

     End of self-consistent calculation

     Convergence has been achieved 

     Number of q in the star =    4
     List of q in the star:
          1   0.500000000  -0.500000000   0.500000000
          2   0.500000000   0.500000000   0.500000000
          3  -0.500000000   0.500000000   0.500000000
          4   0.500000000   0.500000000  -0.500000000

     Diagonalizing the dynamical matrix

     q = (    0.500000000  -0.500000000   0.500000000 ) 

 **************************************************************************
     freq (    1) =       3.162097 [THz] =     105.476201 [cm-1]
     freq (    2) =       3.162097 [THz] =     105.476201 [cm-1]
     freq (    3) =      11.225192 [THz] =     374.432108 [cm-1]
     freq (    4) =      12.270682 [THz] =     409.305909 [cm-1]
     freq (    5) =      14.592058 [THz] =     486.738666 [cm-1]
     freq (    6) =      14.592058 [THz] =     486.738666 [cm-1]
 **************************************************************************

     Calculation of q =    0.0000000   0.3333333   0.0000000
     Message from routine kpoint_grid:
     ATTENTION: skip check of k-points equivalence

     G-vector sticks info
     --------------------
     sticks:   dense  smooth     PW     G-vecs:    dense   smooth      PW
     Sum         433     433    151                 5961     5961    1243


     Title: 
     phonons of Si                                                              


     bravais-lattice index     =            2
     lattice parameter (alat)  =      10.2000  a.u.
     unit-cell volume          =     265.3020 (a.u.)^3
     number of atoms/cell      =            2
     number of atomic types    =            1
     number of electrons       =         8.00
     number of Kohn-Sham states=           12
     kinetic-energy cutoff     =      30.0000  Ry
     charge density cutoff     =     120.0000  Ry
     Exchange-correlation= PZ
                           (   1   1   0   0   0   0   0)

     celldm(1)=  10.200000  celldm(2)=   0.000000  celldm(3)=   0.000000
     celldm(4)=   0.000000  celldm(5)=   0.000000  celldm(6)=   0.000000

     crystal axes: (cart. coord. in units of alat)
               a(1) = (  -0.500000   0.000000   0.500000 )  
               a(2) = (   0.000000   0.500000   0.500000 )  
               a(3) = (  -0.500000   0.500000   0.000000 )  

     reciprocal axes: (cart. coord. in units 2 pi/alat)
               b(1) = ( -1.000000 -1.000000  1.000000 )  
               b(2) = (  1.000000  1.000000  1.000000 )  
               b(3) = ( -1.000000  1.000000 -1.000000 )  


     PseudoPot. # 1 for Si read from file:
     ../../pseudoPotentials/Si.pz-vbc.UPF
     MD5 check sum: 9f25e6ff280f3123e9b3a84715b2e9c9
     Pseudo is Norm-conserving, Zval =  4.0
     Generated by new atomic code, or converted to UPF format
     Using radial grid of  431 points,  2 beta functions with: 
                l(1) =   0
                l(2) =   1

     atomic species   valence    mass     pseudopotential
        Si             4.00    28.08600     Si( 1.00)

     48 Sym. Ops., with inversion, found



   Cartesian axes

     site n.     atom                  positions (alat units)
         1           Si  tau(   1) = (   0.0000000   0.0000000   0.0000000  )
         2           Si  tau(   2) = (   0.2500000   0.2500000   0.2500000  )

     number of k points=   432

     Number of k-points >= 100: set verbosity='high' to print them.

     Dense  grid:     5961 G-vectors     FFT dimensions: (  32,  32,  32)

     Estimated max dynamical RAM per process >       4.42 MB

     Estimated total dynamical RAM >      17.68 MB

     The potential is recalculated from file :
     ./out/_ph0/silicon.q_5/silicon.save/charge-density

     Starting wfcs are    8 atomic +    4 random wfcs

     Band Structure Calculation
     Davidson diagonalization with overlap

     ethr =  1.25E-10,  avg # of iterations = 20.0

     total cpu time spent up to now is      273.2 secs

     End of band structure calculation

     Number of k-points >= 100: set verbosity='high' to print the bands.

     highest occupied, lowest unoccupied level (ev):     6.2376    6.8644

     Writing output data file ./out/_ph0/silicon.q_5/silicon.save/

     phonons of Si                                                              

     bravais-lattice index     =            2
     lattice parameter (alat)  =      10.2000  a.u.
     unit-cell volume          =     265.3020 (a.u.)^3
     number of atoms/cell      =            2
     number of atomic types    =            1
     kinetic-energy cut-off    =      30.0000  Ry
     charge density cut-off    =     120.0000  Ry
     convergence threshold     =      1.0E-14
     beta                      =       0.7000
     number of iterations used =            4
     Exchange-correlation= PZ
                           (   1   1   0   0   0   0   0)


     celldm(1)=   10.20000  celldm(2)=    0.00000  celldm(3)=    0.00000
     celldm(4)=    0.00000  celldm(5)=    0.00000  celldm(6)=    0.00000

     crystal axes: (cart. coord. in units of alat)
               a(1) = ( -0.5000  0.0000  0.5000 )  
               a(2) = (  0.0000  0.5000  0.5000 )  
               a(3) = ( -0.5000  0.5000  0.0000 )  

     reciprocal axes: (cart. coord. in units 2 pi/alat)
               b(1) = ( -1.0000 -1.0000  1.0000 )  
               b(2) = (  1.0000  1.0000  1.0000 )  
               b(3) = ( -1.0000  1.0000 -1.0000 )  


     Atoms inside the unit cell: 

     Cartesian axes

     site n.  atom      mass           positions (alat units)
        1     Si  28.0860   tau(    1) = (    0.00000    0.00000    0.00000  )
        2     Si  28.0860   tau(    2) = (    0.25000    0.25000    0.25000  )

     Computing dynamical matrix for 
                    q = (   0.0000000   0.3333333   0.0000000 )

      8 Sym.Ops. (no q -> -q+G )


     G cutoff =  316.2437  (   5961 G-vectors)     FFT grid: ( 32, 32, 32)
     number of k points=   432

     PseudoPot. # 1 for Si read from file:
     ../../pseudoPotentials/Si.pz-vbc.UPF
     MD5 check sum: 9f25e6ff280f3123e9b3a84715b2e9c9
     Pseudo is Norm-conserving, Zval =  4.0
     Generated by new atomic code, or converted to UPF format
     Using radial grid of  431 points,  2 beta functions with: 
                l(1) =   0
                l(2) =   1

     Mode symmetry, C_4v (4mm)  point group:


     Atomic displacements:
     There are    4 irreducible representations

     Representation     1      1 modes -  To be done

     Representation     2      1 modes -  To be done

     Representation     3      2 modes -  To be done

     Representation     4      2 modes -  To be done



     Alpha used in Ewald sum =   1.3000
     PHONON       :  12m 8.12s CPU  11m29.02s WALL



     Representation #   1 mode #   1

     Self-consistent Calculation

      iter #   1 total cpu time :   694.9 secs   av.it.:   6.0
      thresh= 1.000E-02 alpha_mix =  0.700 |ddv_scf|^2 =  3.701E-03

      iter #   2 total cpu time :   698.2 secs   av.it.:   7.9
      thresh= 6.084E-03 alpha_mix =  0.700 |ddv_scf|^2 =  1.015E-01

      iter #   3 total cpu time :   701.2 secs   av.it.:   7.2
      thresh= 1.000E-02 alpha_mix =  0.700 |ddv_scf|^2 =  1.328E-07

      iter #   4 total cpu time :   704.3 secs   av.it.:   8.2
      thresh= 3.645E-05 alpha_mix =  0.700 |ddv_scf|^2 =  6.278E-09

      iter #   5 total cpu time :   707.5 secs   av.it.:   7.7
      thresh= 7.924E-06 alpha_mix =  0.700 |ddv_scf|^2 =  2.922E-11

      iter #   6 total cpu time :   710.6 secs   av.it.:   8.1
      thresh= 5.406E-07 alpha_mix =  0.700 |ddv_scf|^2 =  1.378E-13

      iter #   7 total cpu time :   713.8 secs   av.it.:   8.0
      thresh= 3.712E-08 alpha_mix =  0.700 |ddv_scf|^2 =  4.002E-14

      iter #   8 total cpu time :   716.4 secs   av.it.:   6.4
      thresh= 2.001E-08 alpha_mix =  0.700 |ddv_scf|^2 =  1.610E-14

      iter #   9 total cpu time :   719.0 secs   av.it.:   5.9
      thresh= 1.269E-08 alpha_mix =  0.700 |ddv_scf|^2 =  5.013E-15

     End of self-consistent calculation

     Convergence has been achieved 


     Representation #   2 mode #   2

     Self-consistent Calculation

      iter #   1 total cpu time :   725.4 secs   av.it.:   5.1
      thresh= 1.000E-02 alpha_mix =  0.700 |ddv_scf|^2 =  7.528E-07

      iter #   2 total cpu time :   728.8 secs   av.it.:   9.4
      thresh= 8.676E-05 alpha_mix =  0.700 |ddv_scf|^2 =  9.297E-08

      iter #   3 total cpu time :   732.0 secs   av.it.:   9.3
      thresh= 3.049E-05 alpha_mix =  0.700 |ddv_scf|^2 =  1.142E-09

      iter #   4 total cpu time :   735.3 secs   av.it.:   9.0
      thresh= 3.379E-06 alpha_mix =  0.700 |ddv_scf|^2 =  2.756E-11

      iter #   5 total cpu time :   738.4 secs   av.it.:   8.8
      thresh= 5.249E-07 alpha_mix =  0.700 |ddv_scf|^2 =  1.115E-13

      iter #   6 total cpu time :   741.7 secs   av.it.:   8.7
      thresh= 3.340E-08 alpha_mix =  0.700 |ddv_scf|^2 =  3.437E-16

     End of self-consistent calculation

     Convergence has been achieved 


     Representation #   3 modes #   3   4

     Self-consistent Calculation

      iter #   1 total cpu time :   753.1 secs   av.it.:   5.2
      thresh= 1.000E-02 alpha_mix =  0.700 |ddv_scf|^2 =  1.959E-07

      iter #   2 total cpu time :   759.7 secs   av.it.:  10.3
      thresh= 4.426E-05 alpha_mix =  0.700 |ddv_scf|^2 =  1.849E-08

      iter #   3 total cpu time :   766.2 secs   av.it.:  10.0
      thresh= 1.360E-05 alpha_mix =  0.700 |ddv_scf|^2 =  4.545E-11

      iter #   4 total cpu time :   772.9 secs   av.it.:  10.0
      thresh= 6.742E-07 alpha_mix =  0.700 |ddv_scf|^2 =  3.045E-12

      iter #   5 total cpu time :   780.0 secs   av.it.:   9.9
      thresh= 1.745E-07 alpha_mix =  0.700 |ddv_scf|^2 =  2.898E-15

     End of self-consistent calculation

     Convergence has been achieved 


     Representation #   4 modes #   5   6

     Self-consistent Calculation

      iter #   1 total cpu time :   792.3 secs   av.it.:   5.2
      thresh= 1.000E-02 alpha_mix =  0.700 |ddv_scf|^2 =  1.375E-07

      iter #   2 total cpu time :   799.0 secs   av.it.:  10.3
      thresh= 3.708E-05 alpha_mix =  0.700 |ddv_scf|^2 =  1.250E-08

      iter #   3 total cpu time :   805.7 secs   av.it.:  10.0
      thresh= 1.118E-05 alpha_mix =  0.700 |ddv_scf|^2 =  4.709E-11

      iter #   4 total cpu time :   812.8 secs   av.it.:  10.0
      thresh= 6.862E-07 alpha_mix =  0.700 |ddv_scf|^2 =  3.035E-12

      iter #   5 total cpu time :   819.6 secs   av.it.:   9.9
      thresh= 1.742E-07 alpha_mix =  0.700 |ddv_scf|^2 =  3.864E-15

     End of self-consistent calculation

     Convergence has been achieved 

     Number of q in the star =    6
     List of q in the star:
          1   0.000000000   0.333333333   0.000000000
          2   0.333333333   0.000000000   0.000000000
          3   0.000000000   0.000000000   0.333333333
          4   0.000000000  -0.333333333   0.000000000
          5  -0.333333333   0.000000000   0.000000000
          6   0.000000000   0.000000000  -0.333333333

     Diagonalizing the dynamical matrix

     q = (    0.000000000   0.333333333   0.000000000 ) 

 **************************************************************************
     freq (    1) =       2.983487 [THz] =      99.518398 [cm-1]
     freq (    2) =       2.983487 [THz] =      99.518398 [cm-1]
     freq (    3) =       4.953705 [THz] =     165.237797 [cm-1]
     freq (    4) =      14.611734 [THz] =     487.394986 [cm-1]
     freq (    5) =      14.611734 [THz] =     487.394986 [cm-1]
     freq (    6) =      15.119133 [THz] =     504.319994 [cm-1]
 **************************************************************************

     Mode symmetry, C_4v (4mm)  point group:

     freq (   1-   2) =         99.5  [cm-1]   --> E    G_5 D_5       
     freq (   3-   3) =        165.2  [cm-1]   --> A_1  G_1 D_1       
     freq (   4-   5) =        487.4  [cm-1]   --> E    G_5 D_5       
     freq (   6-   6) =        504.3  [cm-1]   --> B_2  G_4 D_2'      

     Calculation of q =   -0.1666667   0.5000000  -0.1666667
     Message from routine kpoint_grid:
     ATTENTION: skip check of k-points equivalence

     G-vector sticks info
     --------------------
     sticks:   dense  smooth     PW     G-vecs:    dense   smooth      PW
     Sum         433     433    151                 5961     5961    1243


     Title: 
     phonons of Si                                                              


     bravais-lattice index     =            2
     lattice parameter (alat)  =      10.2000  a.u.
     unit-cell volume          =     265.3020 (a.u.)^3
     number of atoms/cell      =            2
     number of atomic types    =            1
     number of electrons       =         8.00
     number of Kohn-Sham states=           12
     kinetic-energy cutoff     =      30.0000  Ry
     charge density cutoff     =     120.0000  Ry
     Exchange-correlation= PZ
                           (   1   1   0   0   0   0   0)

     celldm(1)=  10.200000  celldm(2)=   0.000000  celldm(3)=   0.000000
     celldm(4)=   0.000000  celldm(5)=   0.000000  celldm(6)=   0.000000

     crystal axes: (cart. coord. in units of alat)
               a(1) = (  -0.500000   0.000000   0.500000 )  
               a(2) = (   0.000000   0.500000   0.500000 )  
               a(3) = (  -0.500000   0.500000   0.000000 )  

     reciprocal axes: (cart. coord. in units 2 pi/alat)
               b(1) = ( -1.000000 -1.000000  1.000000 )  
               b(2) = (  1.000000  1.000000  1.000000 )  
               b(3) = ( -1.000000  1.000000 -1.000000 )  


     PseudoPot. # 1 for Si read from file:
     ../../pseudoPotentials/Si.pz-vbc.UPF
     MD5 check sum: 9f25e6ff280f3123e9b3a84715b2e9c9
     Pseudo is Norm-conserving, Zval =  4.0
     Generated by new atomic code, or converted to UPF format
     Using radial grid of  431 points,  2 beta functions with: 
                l(1) =   0
                l(2) =   1

     atomic species   valence    mass     pseudopotential
        Si             4.00    28.08600     Si( 1.00)

     48 Sym. Ops., with inversion, found



   Cartesian axes

     site n.     atom                  positions (alat units)
         1           Si  tau(   1) = (   0.0000000   0.0000000   0.0000000  )
         2           Si  tau(   2) = (   0.2500000   0.2500000   0.2500000  )

     number of k points=   432

     Number of k-points >= 100: set verbosity='high' to print them.

     Dense  grid:     5961 G-vectors     FFT dimensions: (  32,  32,  32)

     Estimated max dynamical RAM per process >       4.42 MB

     Estimated total dynamical RAM >      17.68 MB

     The potential is recalculated from file :
     ./out/_ph0/silicon.q_6/silicon.save/charge-density

     Starting wfcs are    8 atomic +    4 random wfcs

     Band Structure Calculation
     Davidson diagonalization with overlap

     ethr =  1.25E-10,  avg # of iterations = 19.9

     total cpu time spent up to now is      343.5 secs

     End of band structure calculation

     Number of k-points >= 100: set verbosity='high' to print the bands.

     highest occupied, lowest unoccupied level (ev):     6.2376    6.8644

     Writing output data file ./out/_ph0/silicon.q_6/silicon.save/

     phonons of Si                                                              

     bravais-lattice index     =            2
     lattice parameter (alat)  =      10.2000  a.u.
     unit-cell volume          =     265.3020 (a.u.)^3
     number of atoms/cell      =            2
     number of atomic types    =            1
     kinetic-energy cut-off    =      30.0000  Ry
     charge density cut-off    =     120.0000  Ry
     convergence threshold     =      1.0E-14
     beta                      =       0.7000
     number of iterations used =            4
     Exchange-correlation= PZ
                           (   1   1   0   0   0   0   0)


     celldm(1)=   10.20000  celldm(2)=    0.00000  celldm(3)=    0.00000
     celldm(4)=    0.00000  celldm(5)=    0.00000  celldm(6)=    0.00000

     crystal axes: (cart. coord. in units of alat)
               a(1) = ( -0.5000  0.0000  0.5000 )  
               a(2) = (  0.0000  0.5000  0.5000 )  
               a(3) = ( -0.5000  0.5000  0.0000 )  

     reciprocal axes: (cart. coord. in units 2 pi/alat)
               b(1) = ( -1.0000 -1.0000  1.0000 )  
               b(2) = (  1.0000  1.0000  1.0000 )  
               b(3) = ( -1.0000  1.0000 -1.0000 )  


     Atoms inside the unit cell: 

     Cartesian axes

     site n.  atom      mass           positions (alat units)
        1     Si  28.0860   tau(    1) = (    0.00000    0.00000    0.00000  )
        2     Si  28.0860   tau(    2) = (    0.25000    0.25000    0.25000  )

     Computing dynamical matrix for 
                    q = (  -0.1666667   0.5000000  -0.1666667 )

      2 Sym.Ops. (no q -> -q+G )


     G cutoff =  316.2437  (   5961 G-vectors)     FFT grid: ( 32, 32, 32)
     number of k points=   432

     PseudoPot. # 1 for Si read from file:
     ../../pseudoPotentials/Si.pz-vbc.UPF
     MD5 check sum: 9f25e6ff280f3123e9b3a84715b2e9c9
     Pseudo is Norm-conserving, Zval =  4.0
     Generated by new atomic code, or converted to UPF format
     Using radial grid of  431 points,  2 beta functions with: 
                l(1) =   0
                l(2) =   1

     Mode symmetry, C_s (m)     point group:


     Atomic displacements:
     There are    6 irreducible representations

     Representation     1      1 modes -  To be done

     Representation     2      1 modes -  To be done

     Representation     3      1 modes -  To be done

     Representation     4      1 modes -  To be done

     Representation     5      1 modes -  To be done

     Representation     6      1 modes -  To be done



     Alpha used in Ewald sum =   1.3000
     PHONON       :  15m41.27s CPU  14m55.64s WALL



     Representation #   1 mode #   1

     Self-consistent Calculation

      iter #   1 total cpu time :   901.9 secs   av.it.:   6.0
      thresh= 1.000E-02 alpha_mix =  0.700 |ddv_scf|^2 =  2.237E-04

      iter #   2 total cpu time :   905.1 secs   av.it.:   8.8
      thresh= 1.496E-03 alpha_mix =  0.700 |ddv_scf|^2 =  2.293E-03

      iter #   3 total cpu time :   907.8 secs   av.it.:   7.3
      thresh= 4.789E-03 alpha_mix =  0.700 |ddv_scf|^2 =  2.297E-07

      iter #   4 total cpu time :   911.3 secs   av.it.:   9.3
      thresh= 4.793E-05 alpha_mix =  0.700 |ddv_scf|^2 =  7.498E-09

      iter #   5 total cpu time :   914.7 secs   av.it.:   9.1
      thresh= 8.659E-06 alpha_mix =  0.700 |ddv_scf|^2 =  7.465E-11

      iter #   6 total cpu time :   918.1 secs   av.it.:   9.5
      thresh= 8.640E-07 alpha_mix =  0.700 |ddv_scf|^2 =  1.204E-11

      iter #   7 total cpu time :   921.5 secs   av.it.:   9.1
      thresh= 3.470E-07 alpha_mix =  0.700 |ddv_scf|^2 =  6.062E-11

      iter #   8 total cpu time :   924.4 secs   av.it.:   7.6
      thresh= 7.786E-07 alpha_mix =  0.700 |ddv_scf|^2 =  2.104E-12

      iter #   9 total cpu time :   927.4 secs   av.it.:   8.5
      thresh= 1.451E-07 alpha_mix =  0.700 |ddv_scf|^2 =  5.053E-12

      iter #  10 total cpu time :   930.5 secs   av.it.:   7.9
      thresh= 2.248E-07 alpha_mix =  0.700 |ddv_scf|^2 =  4.320E-15

     End of self-consistent calculation

     Convergence has been achieved 


     Representation #   2 mode #   2

     Self-consistent Calculation

      iter #   1 total cpu time :   937.5 secs   av.it.:   5.9
      thresh= 1.000E-02 alpha_mix =  0.700 |ddv_scf|^2 =  1.515E-04

      iter #   2 total cpu time :   941.0 secs   av.it.:   8.9
      thresh= 1.231E-03 alpha_mix =  0.700 |ddv_scf|^2 =  1.548E-03

      iter #   3 total cpu time :   944.0 secs   av.it.:   7.3
      thresh= 3.934E-03 alpha_mix =  0.700 |ddv_scf|^2 =  6.222E-08

      iter #   4 total cpu time :   947.9 secs   av.it.:   9.7
      thresh= 2.494E-05 alpha_mix =  0.700 |ddv_scf|^2 =  3.297E-09

      iter #   5 total cpu time :   951.7 secs   av.it.:   9.4
      thresh= 5.742E-06 alpha_mix =  0.700 |ddv_scf|^2 =  1.213E-10

      iter #   6 total cpu time :   955.7 secs   av.it.:   9.4
      thresh= 1.101E-06 alpha_mix =  0.700 |ddv_scf|^2 =  8.720E-12

      iter #   7 total cpu time :   959.4 secs   av.it.:   9.4
      thresh= 2.953E-07 alpha_mix =  0.700 |ddv_scf|^2 =  4.035E-11

      iter #   8 total cpu time :   962.6 secs   av.it.:   7.5
      thresh= 6.352E-07 alpha_mix =  0.700 |ddv_scf|^2 =  6.267E-13

      iter #   9 total cpu time :   965.9 secs   av.it.:   9.0
      thresh= 7.916E-08 alpha_mix =  0.700 |ddv_scf|^2 =  1.622E-12

      iter #  10 total cpu time :   968.8 secs   av.it.:   7.8
      thresh= 1.274E-07 alpha_mix =  0.700 |ddv_scf|^2 =  6.048E-15

     End of self-consistent calculation

     Convergence has been achieved 


     Representation #   3 mode #   3

     Self-consistent Calculation

      iter #   1 total cpu time :   975.8 secs   av.it.:   5.8
      thresh= 1.000E-02 alpha_mix =  0.700 |ddv_scf|^2 =  1.003E-04

      iter #   2 total cpu time :   978.8 secs   av.it.:   8.9
      thresh= 1.001E-03 alpha_mix =  0.700 |ddv_scf|^2 =  1.014E-03

      iter #   3 total cpu time :   981.5 secs   av.it.:   7.3
      thresh= 3.184E-03 alpha_mix =  0.700 |ddv_scf|^2 =  2.350E-07

      iter #   4 total cpu time :   984.7 secs   av.it.:   9.2
      thresh= 4.847E-05 alpha_mix =  0.700 |ddv_scf|^2 =  3.135E-09

      iter #   5 total cpu time :   988.5 secs   av.it.:   9.3
      thresh= 5.599E-06 alpha_mix =  0.700 |ddv_scf|^2 =  5.889E-11

      iter #   6 total cpu time :   991.9 secs   av.it.:   9.5
      thresh= 7.674E-07 alpha_mix =  0.700 |ddv_scf|^2 =  7.380E-12

      iter #   7 total cpu time :   995.4 secs   av.it.:   9.3
      thresh= 2.717E-07 alpha_mix =  0.700 |ddv_scf|^2 =  3.235E-11

      iter #   8 total cpu time :   998.7 secs   av.it.:   7.6
      thresh= 5.688E-07 alpha_mix =  0.700 |ddv_scf|^2 =  2.956E-12

      iter #   9 total cpu time :  1002.4 secs   av.it.:   8.3
      thresh= 1.719E-07 alpha_mix =  0.700 |ddv_scf|^2 =  5.620E-12

      iter #  10 total cpu time :  1006.0 secs   av.it.:   7.9
      thresh= 2.371E-07 alpha_mix =  0.700 |ddv_scf|^2 =  1.126E-14

      iter #  11 total cpu time :  1009.7 secs   av.it.:   9.5
      thresh= 1.061E-08 alpha_mix =  0.700 |ddv_scf|^2 =  3.073E-15

     End of self-consistent calculation

     Convergence has been achieved 


     Representation #   4 mode #   4

     Self-consistent Calculation

      iter #   1 total cpu time :  1016.8 secs   av.it.:   5.5
      thresh= 1.000E-02 alpha_mix =  0.700 |ddv_scf|^2 =  2.814E-05

      iter #   2 total cpu time :  1020.4 secs   av.it.:   9.0
      thresh= 5.305E-04 alpha_mix =  0.700 |ddv_scf|^2 =  2.683E-04

      iter #   3 total cpu time :  1023.8 secs   av.it.:   7.3
      thresh= 1.638E-03 alpha_mix =  0.700 |ddv_scf|^2 =  1.597E-07

      iter #   4 total cpu time :  1027.5 secs   av.it.:   9.1
      thresh= 3.996E-05 alpha_mix =  0.700 |ddv_scf|^2 =  2.484E-09

      iter #   5 total cpu time :  1031.3 secs   av.it.:   9.2
      thresh= 4.984E-06 alpha_mix =  0.700 |ddv_scf|^2 =  9.401E-11

      iter #   6 total cpu time :  1034.7 secs   av.it.:   9.4
      thresh= 9.696E-07 alpha_mix =  0.700 |ddv_scf|^2 =  7.877E-12

      iter #   7 total cpu time :  1038.3 secs   av.it.:   9.3
      thresh= 2.807E-07 alpha_mix =  0.700 |ddv_scf|^2 =  2.620E-11

      iter #   8 total cpu time :  1041.6 secs   av.it.:   7.7
      thresh= 5.119E-07 alpha_mix =  0.700 |ddv_scf|^2 =  2.904E-12

      iter #   9 total cpu time :  1044.9 secs   av.it.:   8.4
      thresh= 1.704E-07 alpha_mix =  0.700 |ddv_scf|^2 =  2.302E-12

      iter #  10 total cpu time :  1048.2 secs   av.it.:   8.0
      thresh= 1.517E-07 alpha_mix =  0.700 |ddv_scf|^2 =  2.885E-14

      iter #  11 total cpu time :  1051.6 secs   av.it.:   9.2
      thresh= 1.699E-08 alpha_mix =  0.700 |ddv_scf|^2 =  6.793E-15

     End of self-consistent calculation

     Convergence has been achieved 


     Representation #   5 mode #   5

     Self-consistent Calculation

      iter #   1 total cpu time :  1058.0 secs   av.it.:   5.2
      thresh= 1.000E-02 alpha_mix =  0.700 |ddv_scf|^2 =  9.287E-07

      iter #   2 total cpu time :  1061.7 secs   av.it.:   9.6
      thresh= 9.637E-05 alpha_mix =  0.700 |ddv_scf|^2 =  1.295E-07

      iter #   3 total cpu time :  1065.1 secs   av.it.:   9.1
      thresh= 3.599E-05 alpha_mix =  0.700 |ddv_scf|^2 =  1.930E-10

      iter #   4 total cpu time :  1068.3 secs   av.it.:   9.1
      thresh= 1.389E-06 alpha_mix =  0.700 |ddv_scf|^2 =  1.175E-11

      iter #   5 total cpu time :  1071.6 secs   av.it.:   9.0
      thresh= 3.428E-07 alpha_mix =  0.700 |ddv_scf|^2 =  1.316E-14

      iter #   6 total cpu time :  1074.9 secs   av.it.:   9.6
      thresh= 1.147E-08 alpha_mix =  0.700 |ddv_scf|^2 =  1.128E-16

     End of self-consistent calculation

     Convergence has been achieved 


     Representation #   6 mode #   6

     Self-consistent Calculation

      iter #   1 total cpu time :  1081.2 secs   av.it.:   5.2
      thresh= 1.000E-02 alpha_mix =  0.700 |ddv_scf|^2 =  9.287E-07

      iter #   2 total cpu time :  1084.7 secs   av.it.:   9.6
      thresh= 9.637E-05 alpha_mix =  0.700 |ddv_scf|^2 =  1.295E-07

      iter #   3 total cpu time :  1088.0 secs   av.it.:   9.1
      thresh= 3.599E-05 alpha_mix =  0.700 |ddv_scf|^2 =  1.930E-10

      iter #   4 total cpu time :  1091.2 secs   av.it.:   9.1
      thresh= 1.389E-06 alpha_mix =  0.700 |ddv_scf|^2 =  1.176E-11

      iter #   5 total cpu time :  1094.5 secs   av.it.:   9.0
      thresh= 3.429E-07 alpha_mix =  0.700 |ddv_scf|^2 =  1.317E-14

      iter #   6 total cpu time :  1097.9 secs   av.it.:   9.6
      thresh= 1.148E-08 alpha_mix =  0.700 |ddv_scf|^2 =  1.130E-16

     End of self-consistent calculation

     Convergence has been achieved 

     Number of q in the star =   24
     List of q in the star:
          1  -0.166666667   0.500000000  -0.166666667
          2   0.166666667   0.500000000   0.166666667
          3  -0.166666667   0.500000000   0.166666667
          4   0.166666667   0.500000000  -0.166666667
          5   0.500000000  -0.166666667   0.166666667
          6   0.166666667  -0.166666667   0.500000000
          7  -0.166666667  -0.500000000  -0.166666667
          8   0.166666667  -0.500000000  -0.166666667
          9  -0.166666667  -0.500000000   0.166666667
         10   0.500000000  -0.166666667  -0.166666667
         11  -0.500000000  -0.166666667   0.166666667
         12   0.500000000   0.166666667   0.166666667
         13  -0.166666667   0.166666667  -0.500000000
         14  -0.166666667  -0.166666667   0.500000000
         15   0.166666667   0.166666667   0.500000000
         16   0.166666667  -0.166666667  -0.500000000
         17  -0.500000000   0.166666667  -0.166666667
         18  -0.500000000  -0.166666667  -0.166666667
         19   0.166666667  -0.500000000   0.166666667
         20   0.500000000   0.166666667  -0.166666667
         21   0.166666667   0.166666667  -0.500000000
         22  -0.166666667  -0.166666667  -0.500000000
         23  -0.500000000   0.166666667   0.166666667
         24  -0.166666667   0.166666667   0.500000000

     Diagonalizing the dynamical matrix

     q = (   -0.166666667   0.500000000  -0.166666667 ) 

 **************************************************************************
     freq (    1) =       3.637610 [THz] =     121.337599 [cm-1]
     freq (    2) =       4.545697 [THz] =     151.628127 [cm-1]
     freq (    3) =       7.474626 [THz] =     249.326701 [cm-1]
     freq (    4) =      13.819927 [THz] =     460.983145 [cm-1]
     freq (    5) =      14.248392 [THz] =     475.275212 [cm-1]
     freq (    6) =      14.583654 [THz] =     486.458347 [cm-1]
 **************************************************************************

     Mode symmetry, C_s (m)     point group:

     freq (   1-   1) =        121.3  [cm-1]   --> A''                
     freq (   2-   2) =        151.6  [cm-1]   --> A'                 
     freq (   3-   3) =        249.3  [cm-1]   --> A'                 
     freq (   4-   4) =        461.0  [cm-1]   --> A'                 
     freq (   5-   5) =        475.3  [cm-1]   --> A''                
     freq (   6-   6) =        486.5  [cm-1]   --> A'                 

     Calculation of q =    0.6666667  -0.3333333   0.6666667
     Message from routine kpoint_grid:
     ATTENTION: skip check of k-points equivalence

     G-vector sticks info
     --------------------
     sticks:   dense  smooth     PW     G-vecs:    dense   smooth      PW
     Sum         433     433    163                 5961     5961    1459


     Title: 
     phonons of Si                                                              


     bravais-lattice index     =            2
     lattice parameter (alat)  =      10.2000  a.u.
     unit-cell volume          =     265.3020 (a.u.)^3
     number of atoms/cell      =            2
     number of atomic types    =            1
     number of electrons       =         8.00
     number of Kohn-Sham states=           12
     kinetic-energy cutoff     =      30.0000  Ry
     charge density cutoff     =     120.0000  Ry
     Exchange-correlation= PZ
                           (   1   1   0   0   0   0   0)

     celldm(1)=  10.200000  celldm(2)=   0.000000  celldm(3)=   0.000000
     celldm(4)=   0.000000  celldm(5)=   0.000000  celldm(6)=   0.000000

     crystal axes: (cart. coord. in units of alat)
               a(1) = (  -0.500000   0.000000   0.500000 )  
               a(2) = (   0.000000   0.500000   0.500000 )  
               a(3) = (  -0.500000   0.500000   0.000000 )  

     reciprocal axes: (cart. coord. in units 2 pi/alat)
               b(1) = ( -1.000000 -1.000000  1.000000 )  
               b(2) = (  1.000000  1.000000  1.000000 )  
               b(3) = ( -1.000000  1.000000 -1.000000 )  


     PseudoPot. # 1 for Si read from file:
     ../../pseudoPotentials/Si.pz-vbc.UPF
     MD5 check sum: 9f25e6ff280f3123e9b3a84715b2e9c9
     Pseudo is Norm-conserving, Zval =  4.0
     Generated by new atomic code, or converted to UPF format
     Using radial grid of  431 points,  2 beta functions with: 
                l(1) =   0
                l(2) =   1

     atomic species   valence    mass     pseudopotential
        Si             4.00    28.08600     Si( 1.00)

     48 Sym. Ops., with inversion, found



   Cartesian axes

     site n.     atom                  positions (alat units)
         1           Si  tau(   1) = (   0.0000000   0.0000000   0.0000000  )
         2           Si  tau(   2) = (   0.2500000   0.2500000   0.2500000  )

     number of k points=   432

     Number of k-points >= 100: set verbosity='high' to print them.

     Dense  grid:     5961 G-vectors     FFT dimensions: (  32,  32,  32)

     Estimated max dynamical RAM per process >       4.42 MB

     Estimated total dynamical RAM >      17.69 MB

     The potential is recalculated from file :
     ./out/_ph0/silicon.q_7/silicon.save/charge-density

     Starting wfcs are    8 atomic +    4 random wfcs

     Band Structure Calculation
     Davidson diagonalization with overlap

     ethr =  1.25E-10,  avg # of iterations = 20.0

     total cpu time spent up to now is      416.9 secs

     End of band structure calculation

     Number of k-points >= 100: set verbosity='high' to print the bands.

     highest occupied, lowest unoccupied level (ev):     6.2376    6.8644

     Writing output data file ./out/_ph0/silicon.q_7/silicon.save/

     phonons of Si                                                              

     bravais-lattice index     =            2
     lattice parameter (alat)  =      10.2000  a.u.
     unit-cell volume          =     265.3020 (a.u.)^3
     number of atoms/cell      =            2
     number of atomic types    =            1
     kinetic-energy cut-off    =      30.0000  Ry
     charge density cut-off    =     120.0000  Ry
     convergence threshold     =      1.0E-14
     beta                      =       0.7000
     number of iterations used =            4
     Exchange-correlation= PZ
                           (   1   1   0   0   0   0   0)


     celldm(1)=   10.20000  celldm(2)=    0.00000  celldm(3)=    0.00000
     celldm(4)=    0.00000  celldm(5)=    0.00000  celldm(6)=    0.00000

     crystal axes: (cart. coord. in units of alat)
               a(1) = ( -0.5000  0.0000  0.5000 )  
               a(2) = (  0.0000  0.5000  0.5000 )  
               a(3) = ( -0.5000  0.5000  0.0000 )  

     reciprocal axes: (cart. coord. in units 2 pi/alat)
               b(1) = ( -1.0000 -1.0000  1.0000 )  
               b(2) = (  1.0000  1.0000  1.0000 )  
               b(3) = ( -1.0000  1.0000 -1.0000 )  


     Atoms inside the unit cell: 

     Cartesian axes

     site n.  atom      mass           positions (alat units)
        1     Si  28.0860   tau(    1) = (    0.00000    0.00000    0.00000  )
        2     Si  28.0860   tau(    2) = (    0.25000    0.25000    0.25000  )

     Computing dynamical matrix for 
                    q = (   0.6666667  -0.3333333   0.6666667 )

      2 Sym.Ops. (no q -> -q+G )


     G cutoff =  316.2437  (   5961 G-vectors)     FFT grid: ( 32, 32, 32)
     number of k points=   432

     PseudoPot. # 1 for Si read from file:
     ../../pseudoPotentials/Si.pz-vbc.UPF
     MD5 check sum: 9f25e6ff280f3123e9b3a84715b2e9c9
     Pseudo is Norm-conserving, Zval =  4.0
     Generated by new atomic code, or converted to UPF format
     Using radial grid of  431 points,  2 beta functions with: 
                l(1) =   0
                l(2) =   1

     Mode symmetry, C_s (m)     point group:


     Atomic displacements:
     There are    6 irreducible representations

     Representation     1      1 modes -  To be done

     Representation     2      1 modes -  To be done

     Representation     3      1 modes -  To be done

     Representation     4      1 modes -  To be done

     Representation     5      1 modes -  To be done

     Representation     6      1 modes -  To be done



     Alpha used in Ewald sum =   1.3000
     PHONON       :  20m42.78s CPU  19m44.87s WALL



     Representation #   1 mode #   1

     Self-consistent Calculation

      iter #   1 total cpu time :  1190.3 secs   av.it.:   5.9
      thresh= 1.000E-02 alpha_mix =  0.700 |ddv_scf|^2 =  4.353E-05

      iter #   2 total cpu time :  1193.8 secs   av.it.:   9.4
      thresh= 6.598E-04 alpha_mix =  0.700 |ddv_scf|^2 =  1.321E-04

      iter #   3 total cpu time :  1196.8 secs   av.it.:   8.3
      thresh= 1.149E-03 alpha_mix =  0.700 |ddv_scf|^2 =  3.458E-07

      iter #   4 total cpu time :  1199.9 secs   av.it.:   8.8
      thresh= 5.880E-05 alpha_mix =  0.700 |ddv_scf|^2 =  1.804E-09

      iter #   5 total cpu time :  1203.3 secs   av.it.:   9.3
      thresh= 4.247E-06 alpha_mix =  0.700 |ddv_scf|^2 =  1.035E-10

      iter #   6 total cpu time :  1206.7 secs   av.it.:   9.3
      thresh= 1.017E-06 alpha_mix =  0.700 |ddv_scf|^2 =  6.397E-12

      iter #   7 total cpu time :  1209.9 secs   av.it.:   9.2
      thresh= 2.529E-07 alpha_mix =  0.700 |ddv_scf|^2 =  2.123E-13

      iter #   8 total cpu time :  1213.4 secs   av.it.:   9.6
      thresh= 4.608E-08 alpha_mix =  0.700 |ddv_scf|^2 =  1.148E-13

      iter #   9 total cpu time :  1216.6 secs   av.it.:   8.7
      thresh= 3.388E-08 alpha_mix =  0.700 |ddv_scf|^2 =  3.483E-14

      iter #  10 total cpu time :  1219.7 secs   av.it.:   8.8
      thresh= 1.866E-08 alpha_mix =  0.700 |ddv_scf|^2 =  6.450E-15

     End of self-consistent calculation

     Convergence has been achieved 


     Representation #   2 mode #   2

     Self-consistent Calculation

      iter #   1 total cpu time :  1226.5 secs   av.it.:   5.7
      thresh= 1.000E-02 alpha_mix =  0.700 |ddv_scf|^2 =  1.938E-05

      iter #   2 total cpu time :  1229.8 secs   av.it.:   9.4
      thresh= 4.403E-04 alpha_mix =  0.700 |ddv_scf|^2 =  5.761E-05

      iter #   3 total cpu time :  1232.9 secs   av.it.:   8.3
      thresh= 7.590E-04 alpha_mix =  0.700 |ddv_scf|^2 =  9.737E-08

      iter #   4 total cpu time :  1236.1 secs   av.it.:   9.2
      thresh= 3.120E-05 alpha_mix =  0.700 |ddv_scf|^2 =  2.763E-09

      iter #   5 total cpu time :  1239.5 secs   av.it.:   9.0
      thresh= 5.256E-06 alpha_mix =  0.700 |ddv_scf|^2 =  2.501E-10

      iter #   6 total cpu time :  1242.7 secs   av.it.:   9.1
      thresh= 1.582E-06 alpha_mix =  0.700 |ddv_scf|^2 =  9.263E-12

      iter #   7 total cpu time :  1245.9 secs   av.it.:   9.3
      thresh= 3.043E-07 alpha_mix =  0.700 |ddv_scf|^2 =  4.236E-13

      iter #   8 total cpu time :  1249.3 secs   av.it.:   9.5
      thresh= 6.509E-08 alpha_mix =  0.700 |ddv_scf|^2 =  1.132E-14

      iter #   9 total cpu time :  1252.7 secs   av.it.:   9.3
      thresh= 1.064E-08 alpha_mix =  0.700 |ddv_scf|^2 =  2.372E-14

      iter #  10 total cpu time :  1255.8 secs   av.it.:   8.4
[...]

      iter #   4 total cpu time :  2905.3 secs   av.it.:   9.1
      thresh= 2.299E-05 alpha_mix =  0.700 |ddv_scf|^2 =  1.584E-10

      iter #   5 total cpu time :  2908.2 secs   av.it.:   9.2
      thresh= 1.258E-06 alpha_mix =  0.700 |ddv_scf|^2 =  6.808E-12

      iter #   6 total cpu time :  2911.0 secs   av.it.:   9.2
      thresh= 2.609E-07 alpha_mix =  0.700 |ddv_scf|^2 =  1.678E-14

      iter #   7 total cpu time :  2913.9 secs   av.it.:   9.7
      thresh= 1.295E-08 alpha_mix =  0.700 |ddv_scf|^2 =  9.619E-16

     End of self-consistent calculation

     Convergence has been achieved 


     Representation #   5 mode #   5

     Self-consistent Calculation

      iter #   1 total cpu time :  2919.7 secs   av.it.:   5.7
      thresh= 1.000E-02 alpha_mix =  0.700 |ddv_scf|^2 =  9.871E-06

      iter #   2 total cpu time :  2922.5 secs   av.it.:   9.7
      thresh= 3.142E-04 alpha_mix =  0.700 |ddv_scf|^2 =  1.331E-05

      iter #   3 total cpu time :  2925.2 secs   av.it.:   8.9
      thresh= 3.648E-04 alpha_mix =  0.700 |ddv_scf|^2 =  1.030E-07

      iter #   4 total cpu time :  2927.9 secs   av.it.:   9.1
      thresh= 3.209E-05 alpha_mix =  0.700 |ddv_scf|^2 =  2.747E-10

      iter #   5 total cpu time :  2930.7 secs   av.it.:   9.3
      thresh= 1.657E-06 alpha_mix =  0.700 |ddv_scf|^2 =  1.435E-11

      iter #   6 total cpu time :  2933.6 secs   av.it.:   9.2
      thresh= 3.788E-07 alpha_mix =  0.700 |ddv_scf|^2 =  1.958E-13

      iter #   7 total cpu time :  2936.5 secs   av.it.:   9.6
      thresh= 4.425E-08 alpha_mix =  0.700 |ddv_scf|^2 =  2.538E-14

      iter #   8 total cpu time :  2939.1 secs   av.it.:   9.1
      thresh= 1.593E-08 alpha_mix =  0.700 |ddv_scf|^2 =  3.195E-15

     End of self-consistent calculation

     Convergence has been achieved 


     Representation #   6 mode #   6

     Self-consistent Calculation

      iter #   1 total cpu time :  2944.7 secs   av.it.:   5.3
      thresh= 1.000E-02 alpha_mix =  0.700 |ddv_scf|^2 =  1.777E-06

      iter #   2 total cpu time :  2947.5 secs   av.it.:   9.7
      thresh= 1.333E-04 alpha_mix =  0.700 |ddv_scf|^2 =  5.749E-07

      iter #   3 total cpu time :  2950.3 secs   av.it.:   9.2
      thresh= 7.582E-05 alpha_mix =  0.700 |ddv_scf|^2 =  1.088E-08

      iter #   4 total cpu time :  2953.0 secs   av.it.:   9.0
      thresh= 1.043E-05 alpha_mix =  0.700 |ddv_scf|^2 =  1.063E-09

      iter #   5 total cpu time :  2955.8 secs   av.it.:   8.9
      thresh= 3.261E-06 alpha_mix =  0.700 |ddv_scf|^2 =  1.295E-11

      iter #   6 total cpu time :  2958.5 secs   av.it.:   9.1
      thresh= 3.598E-07 alpha_mix =  0.700 |ddv_scf|^2 =  8.000E-15

     End of self-consistent calculation

     Convergence has been achieved 

     Number of q in the star =   24
     List of q in the star:
          1   0.500000000  -0.166666667   0.833333333
          2   0.833333333   0.166666667   0.500000000
          3   0.500000000   0.166666667   0.833333333
          4  -0.833333333  -0.166666667   0.500000000
          5  -0.833333333  -0.166666667  -0.500000000
          6  -0.500000000  -0.166666667  -0.833333333
          7   0.833333333  -0.166666667   0.500000000
          8  -0.500000000  -0.166666667   0.833333333
          9  -0.833333333   0.166666667   0.500000000
         10   0.833333333   0.166666667  -0.500000000
         11   0.833333333  -0.166666667  -0.500000000
         12   0.500000000   0.166666667  -0.833333333
         13  -0.500000000   0.166666667   0.833333333
         14  -0.500000000   0.166666667  -0.833333333
         15  -0.833333333   0.166666667  -0.500000000
         16   0.833333333  -0.500000000   0.166666667
         17   0.833333333   0.500000000  -0.166666667
         18  -0.833333333  -0.500000000  -0.166666667
         19  -0.833333333   0.500000000   0.166666667
         20   0.166666667  -0.500000000   0.833333333
         21  -0.166666667   0.500000000   0.833333333
         22   0.166666667   0.500000000  -0.833333333
         23  -0.166666667  -0.500000000  -0.833333333
         24  -0.500000000   0.833333333   0.166666667

     Diagonalizing the dynamical matrix

     q = (    0.500000000  -0.166666667   0.833333333 ) 

 **************************************************************************
     freq (    1) =       5.158352 [THz] =     172.064088 [cm-1]
     freq (    2) =       6.215512 [THz] =     207.327176 [cm-1]
     freq (    3) =       9.823107 [THz] =     327.663594 [cm-1]
     freq (    4) =      11.380608 [THz] =     379.616237 [cm-1]
     freq (    5) =      13.917982 [THz] =     464.253913 [cm-1]
     freq (    6) =      14.156252 [THz] =     472.201733 [cm-1]
 **************************************************************************

     Calculation of q =   -0.3333333  -1.0000000   0.0000000
     Message from routine kpoint_grid:
     ATTENTION: skip check of k-points equivalence

     G-vector sticks info
     --------------------
     sticks:   dense  smooth     PW     G-vecs:    dense   smooth      PW
     Sum         433     433    169                 5961     5961    1471


     Title: 
     phonons of Si                                                              


     bravais-lattice index     =            2
     lattice parameter (alat)  =      10.2000  a.u.
     unit-cell volume          =     265.3020 (a.u.)^3
     number of atoms/cell      =            2
     number of atomic types    =            1
     number of electrons       =         8.00
     number of Kohn-Sham states=           12
     kinetic-energy cutoff     =      30.0000  Ry
     charge density cutoff     =     120.0000  Ry
     Exchange-correlation= PZ
                           (   1   1   0   0   0   0   0)

     celldm(1)=  10.200000  celldm(2)=   0.000000  celldm(3)=   0.000000
     celldm(4)=   0.000000  celldm(5)=   0.000000  celldm(6)=   0.000000

     crystal axes: (cart. coord. in units of alat)
               a(1) = (  -0.500000   0.000000   0.500000 )  
               a(2) = (   0.000000   0.500000   0.500000 )  
               a(3) = (  -0.500000   0.500000   0.000000 )  

     reciprocal axes: (cart. coord. in units 2 pi/alat)
               b(1) = ( -1.000000 -1.000000  1.000000 )  
               b(2) = (  1.000000  1.000000  1.000000 )  
               b(3) = ( -1.000000  1.000000 -1.000000 )  


     PseudoPot. # 1 for Si read from file:
     ../../pseudoPotentials/Si.pz-vbc.UPF
     MD5 check sum: 9f25e6ff280f3123e9b3a84715b2e9c9
     Pseudo is Norm-conserving, Zval =  4.0
     Generated by new atomic code, or converted to UPF format
     Using radial grid of  431 points,  2 beta functions with: 
                l(1) =   0
                l(2) =   1

     atomic species   valence    mass     pseudopotential
        Si             4.00    28.08600     Si( 1.00)

     48 Sym. Ops., with inversion, found



   Cartesian axes

     site n.     atom                  positions (alat units)
         1           Si  tau(   1) = (   0.0000000   0.0000000   0.0000000  )
         2           Si  tau(   2) = (   0.2500000   0.2500000   0.2500000  )

     number of k points=   432

     Number of k-points >= 100: set verbosity='high' to print them.

     Dense  grid:     5961 G-vectors     FFT dimensions: (  32,  32,  32)

     Estimated max dynamical RAM per process >       4.42 MB

     Estimated total dynamical RAM >      17.69 MB

     The potential is recalculated from file :
     ./out/_ph0/silicon.q_16/silicon.save/charge-density

     Starting wfcs are    8 atomic +    4 random wfcs

     Band Structure Calculation
     Davidson diagonalization with overlap

     ethr =  1.25E-10,  avg # of iterations = 20.0

     total cpu time spent up to now is      921.3 secs

     End of band structure calculation

     Number of k-points >= 100: set verbosity='high' to print the bands.

     highest occupied, lowest unoccupied level (ev):     6.2376    6.8644

     Writing output data file ./out/_ph0/silicon.q_16/silicon.save/

     phonons of Si                                                              

     bravais-lattice index     =            2
     lattice parameter (alat)  =      10.2000  a.u.
     unit-cell volume          =     265.3020 (a.u.)^3
     number of atoms/cell      =            2
     number of atomic types    =            1
     kinetic-energy cut-off    =      30.0000  Ry
     charge density cut-off    =     120.0000  Ry
     convergence threshold     =      1.0E-14
     beta                      =       0.7000
     number of iterations used =            4
     Exchange-correlation= PZ
                           (   1   1   0   0   0   0   0)


     celldm(1)=   10.20000  celldm(2)=    0.00000  celldm(3)=    0.00000
     celldm(4)=    0.00000  celldm(5)=    0.00000  celldm(6)=    0.00000

     crystal axes: (cart. coord. in units of alat)
               a(1) = ( -0.5000  0.0000  0.5000 )  
               a(2) = (  0.0000  0.5000  0.5000 )  
               a(3) = ( -0.5000  0.5000  0.0000 )  

     reciprocal axes: (cart. coord. in units 2 pi/alat)
               b(1) = ( -1.0000 -1.0000  1.0000 )  
               b(2) = (  1.0000  1.0000  1.0000 )  
               b(3) = ( -1.0000  1.0000 -1.0000 )  


     Atoms inside the unit cell: 

     Cartesian axes

     site n.  atom      mass           positions (alat units)
        1     Si  28.0860   tau(    1) = (    0.00000    0.00000    0.00000  )
        2     Si  28.0860   tau(    2) = (    0.25000    0.25000    0.25000  )

     Computing dynamical matrix for 
                    q = (  -0.3333333  -1.0000000   0.0000000 )

      4 Sym.Ops. (no q -> -q+G )


     G cutoff =  316.2437  (   5961 G-vectors)     FFT grid: ( 32, 32, 32)
     number of k points=   432

     PseudoPot. # 1 for Si read from file:
     ../../pseudoPotentials/Si.pz-vbc.UPF
     MD5 check sum: 9f25e6ff280f3123e9b3a84715b2e9c9
     Pseudo is Norm-conserving, Zval =  4.0
     Generated by new atomic code, or converted to UPF format
     Using radial grid of  431 points,  2 beta functions with: 
                l(1) =   0
                l(2) =   1


     Atomic displacements:
     There are    3 irreducible representations

     Representation     1      2 modes -  To be done

     Representation     2      2 modes -  To be done

     Representation     3      2 modes -  To be done



     Alpha used in Ewald sum =   1.3000
     PHONON       :  57m 8.31s CPU  50m22.73s WALL



     Representation #   1 modes #   1   2

     Self-consistent Calculation

      iter #   1 total cpu time :  3032.0 secs   av.it.:   5.6
      thresh= 1.000E-02 alpha_mix =  0.700 |ddv_scf|^2 =  1.807E-06

      iter #   2 total cpu time :  3037.9 secs   av.it.:  10.4
      thresh= 1.344E-04 alpha_mix =  0.700 |ddv_scf|^2 =  2.226E-06

      iter #   3 total cpu time :  3043.4 secs   av.it.:   9.7
      thresh= 1.492E-04 alpha_mix =  0.700 |ddv_scf|^2 =  6.490E-09

      iter #   4 total cpu time :  3048.8 secs   av.it.:  10.0
      thresh= 8.056E-06 alpha_mix =  0.700 |ddv_scf|^2 =  1.418E-10

      iter #   5 total cpu time :  3054.6 secs   av.it.:  10.0
      thresh= 1.191E-06 alpha_mix =  0.700 |ddv_scf|^2 =  4.030E-12

      iter #   6 total cpu time :  3060.5 secs   av.it.:  10.1
      thresh= 2.007E-07 alpha_mix =  0.700 |ddv_scf|^2 =  1.544E-14

      iter #   7 total cpu time :  3066.6 secs   av.it.:  10.1
      thresh= 1.242E-08 alpha_mix =  0.700 |ddv_scf|^2 =  2.661E-16

     End of self-consistent calculation

     Convergence has been achieved 


     Representation #   2 modes #   3   4

     Self-consistent Calculation

      iter #   1 total cpu time :  3078.1 secs   av.it.:   5.7
      thresh= 1.000E-02 alpha_mix =  0.700 |ddv_scf|^2 =  1.609E-06

      iter #   2 total cpu time :  3083.7 secs   av.it.:  10.4
      thresh= 1.268E-04 alpha_mix =  0.700 |ddv_scf|^2 =  1.165E-06

      iter #   3 total cpu time :  3089.3 secs   av.it.:   9.9
      thresh= 1.079E-04 alpha_mix =  0.700 |ddv_scf|^2 =  1.573E-08

      iter #   4 total cpu time :  3095.0 secs   av.it.:   9.9
      thresh= 1.254E-05 alpha_mix =  0.700 |ddv_scf|^2 =  4.777E-11

      iter #   5 total cpu time :  3101.2 secs   av.it.:  10.1
      thresh= 6.912E-07 alpha_mix =  0.700 |ddv_scf|^2 =  3.203E-12

      iter #   6 total cpu time :  3107.0 secs   av.it.:  10.2
      thresh= 1.790E-07 alpha_mix =  0.700 |ddv_scf|^2 =  1.155E-14

      iter #   7 total cpu time :  3112.7 secs   av.it.:  10.3
      thresh= 1.075E-08 alpha_mix =  0.700 |ddv_scf|^2 =  2.017E-16

     End of self-consistent calculation

     Convergence has been achieved 


     Representation #   3 modes #   5   6

     Self-consistent Calculation

      iter #   1 total cpu time :  3123.6 secs   av.it.:   5.6
      thresh= 1.000E-02 alpha_mix =  0.700 |ddv_scf|^2 =  1.985E-06

      iter #   2 total cpu time :  3129.3 secs   av.it.:  10.3
      thresh= 1.409E-04 alpha_mix =  0.700 |ddv_scf|^2 =  2.249E-06

      iter #   3 total cpu time :  3134.8 secs   av.it.:   9.7
      thresh= 1.500E-04 alpha_mix =  0.700 |ddv_scf|^2 =  1.185E-08

      iter #   4 total cpu time :  3140.8 secs   av.it.:  10.0
      thresh= 1.089E-05 alpha_mix =  0.700 |ddv_scf|^2 =  4.449E-11

      iter #   5 total cpu time :  3146.9 secs   av.it.:  10.1
      thresh= 6.670E-07 alpha_mix =  0.700 |ddv_scf|^2 =  2.964E-12

      iter #   6 total cpu time :  3152.9 secs   av.it.:  10.2
      thresh= 1.722E-07 alpha_mix =  0.700 |ddv_scf|^2 =  2.565E-14

      iter #   7 total cpu time :  3158.9 secs   av.it.:  10.3
      thresh= 1.602E-08 alpha_mix =  0.700 |ddv_scf|^2 =  2.230E-16

     End of self-consistent calculation

     Convergence has been achieved 

     Number of q in the star =   12
     List of q in the star:
          1  -0.333333333  -1.000000000   0.000000000
          2   0.000000000  -1.000000000  -0.333333333
          3   0.000000000  -1.000000000   0.333333333
          4   0.333333333  -1.000000000   0.000000000
          5  -1.000000000   0.000000000  -0.333333333
          6   1.000000000   0.000000000   0.333333333
          7   0.000000000   0.333333333   1.000000000
          8   0.000000000  -0.333333333  -1.000000000
          9  -1.000000000  -0.333333333   0.000000000
         10   1.000000000   0.333333333   0.000000000
         11  -0.333333333   0.000000000   1.000000000
         12   0.333333333   0.000000000   1.000000000

     Diagonalizing the dynamical matrix

     q = (   -0.333333333  -1.000000000   0.000000000 ) 

 **************************************************************************
     freq (    1) =       5.629869 [THz] =     187.792207 [cm-1]
     freq (    2) =       5.629869 [THz] =     187.792207 [cm-1]
     freq (    3) =      10.940477 [THz] =     364.935023 [cm-1]
     freq (    4) =      10.940477 [THz] =     364.935023 [cm-1]
     freq (    5) =      13.865991 [THz] =     462.519661 [cm-1]
     freq (    6) =      13.865991 [THz] =     462.519661 [cm-1]
 **************************************************************************

     init_run     :      0.68s CPU      0.74s WALL (      15 calls)
     electrons    :    911.50s CPU    919.11s WALL (      15 calls)

     Called by init_run:
     wfcinit      :      0.00s CPU      0.00s WALL (      15 calls)
     potinit      :      0.09s CPU      0.13s WALL (      15 calls)
     hinit0       :      0.35s CPU      0.36s WALL (      15 calls)

     Called by electrons:
     c_bands      :    911.12s CPU    918.77s WALL (      15 calls)
     v_of_rho     :      0.04s CPU      0.04s WALL (      16 calls)

     Called by c_bands:
     init_us_2    :     18.38s CPU     13.81s WALL (   40700 calls)
     cegterg      :    686.21s CPU    700.26s WALL (    2164 calls)

     Called by *egterg:
     cdiaghg      :     73.70s CPU     75.83s WALL (   34033 calls)
     h_psi        :   2276.97s CPU   1945.88s WALL (  378671 calls)
     g_psi        :      5.56s CPU      3.85s WALL (   32413 calls)

     Called by h_psi:
     h_psi:calbec :    105.28s CPU    152.21s WALL (  378671 calls)
     vloc_psi     :   2132.10s CPU   1760.83s WALL (  378671 calls)
     add_vuspsi   :     28.10s CPU     24.07s WALL (  378671 calls)

     General routines
     calbec       :    133.87s CPU    178.37s WALL (  748833 calls)
     fft          :      0.88s CPU      0.95s WALL (    2080 calls)
     ffts         :      4.34s CPU      3.79s WALL (    5364 calls)
     fftw         :   1810.03s CPU   1504.07s WALL ( 3773512 calls)
     davcio       :     18.40s CPU     15.68s WALL (  182712 calls)

     Parallel routines

     PHONON       :      1h 0m CPU  52m44.47s WALL

     INITIALIZATION: 
     phq_setup    :      0.12s CPU      0.13s WALL (      16 calls)
     phq_init     :     10.23s CPU     10.40s WALL (      16 calls)

     phq_init     :     10.23s CPU     10.40s WALL (      16 calls)
     init_vloc    :      0.01s CPU      0.01s WALL (      16 calls)
     init_us_1    :      0.17s CPU      0.17s WALL (      16 calls)

     DYNAMICAL MATRIX:
     dynmat0      :      7.24s CPU      7.29s WALL (      16 calls)
     phqscf       :   2586.10s CPU   2138.80s WALL (      16 calls)
     dynmatrix    :      0.17s CPU      0.09s WALL (      16 calls)

     phqscf       :   2586.10s CPU   2138.80s WALL (      16 calls)
     solve_linter :   2571.16s CPU   2131.62s WALL (      76 calls)
     drhodv       :     14.08s CPU      6.73s WALL (      76 calls)

     dynmat0      :      7.24s CPU      7.29s WALL (      16 calls)
     dynmat_us    :      6.81s CPU      6.95s WALL (      16 calls)
     d2ionq       :      0.11s CPU      0.10s WALL (      16 calls)

     dynmat_us    :      6.81s CPU      6.95s WALL (      16 calls)

     phqscf       :   2586.10s CPU   2138.80s WALL (      16 calls)
     solve_linter :   2571.16s CPU   2131.62s WALL (      76 calls)

     solve_linter :   2571.16s CPU   2131.62s WALL (      76 calls)
     dvqpsi_us    :    146.68s CPU    151.61s WALL (    4908 calls)
     ortho        :      4.10s CPU      3.14s WALL (   34200 calls)
     cgsolve      :   1838.74s CPU   1484.28s WALL (   34200 calls)
     incdrhoscf   :    218.13s CPU    172.65s WALL (   34188 calls)
     vpsifft      :    149.20s CPU    116.88s WALL (   29244 calls)
     dv_of_drho   :      1.25s CPU      1.36s WALL (     672 calls)
     mix_pot      :      5.36s CPU      7.83s WALL (     558 calls)
     psymdvscf    :     13.55s CPU     11.70s WALL (     553 calls)

     dvqpsi_us    :    146.68s CPU    151.61s WALL (    4908 calls)
     dvqpsi_us_on :     22.56s CPU     33.33s WALL (    4908 calls)

     cgsolve      :   1838.74s CPU   1484.28s WALL (   34200 calls)
     ch_psi       :   1812.37s CPU   1462.95s WALL (  342474 calls)

     ch_psi       :   1812.37s CPU   1462.95s WALL (  342474 calls)
     h_psi        :   2276.97s CPU   1945.88s WALL (  378671 calls)
     last         :     73.49s CPU     60.52s WALL (  342474 calls)

     h_psi        :   2276.97s CPU   1945.88s WALL (  378671 calls)
     add_vuspsi   :     28.10s CPU     24.07s WALL (  378671 calls)

     incdrhoscf   :    218.13s CPU    172.65s WALL (   34188 calls)


      Electron-phonon coupling
     elphel       :     59.29s CPU     64.12s WALL (      76 calls)

      General routines
     calbec       :    133.87s CPU    178.37s WALL (  748833 calls)
     fft          :      0.88s CPU      0.95s WALL (    2080 calls)
     ffts         :      4.34s CPU      3.79s WALL (    5364 calls)
     fftw         :   1810.03s CPU   1504.07s WALL ( 3773512 calls)
     davcio       :     18.40s CPU     15.68s WALL (  182712 calls)
     write_rec    :      6.36s CPU      6.41s WALL (     634 calls)


     PHONON       :      1h 0m CPU  52m44.47s WALL


   This run was terminated on:  12:55:52   2Jun2021            

=------------------------------------------------------------------------------=
   JOB DONE.
=------------------------------------------------------------------------------=
