
     Program PHONON v.6.6 starts on  2Nov2020 at 15:47:31 

     This program is part of the open-source Quantum ESPRESSO suite
     for quantum simulation of materials; please cite
         "P. Giannozzi et al., J. Phys.:Condens. Matter 21 395502 (2009);
         "P. Giannozzi et al., J. Phys.:Condens. Matter 29 465901 (2017);
          URL http://www.quantum-espresso.org", 
     in publications or presentations arising from this work. More details at
     http://www.quantum-espresso.org/quote

     Parallel version (MPI), running on     4 processors

     MPI processes distributed on     1 nodes
     K-points division:     npool     =       4
     Fft bands division:     nmany     =       1

     Reading xml data from directory:

     ./out/silicon.save/

     IMPORTANT: XC functional enforced from input :
     Exchange-correlation= PZ
                           (   1   1   0   0   0   0   0)
     Any further DFT definition will be discarded
     Please, verify this is what you really want


     G-vector sticks info
     --------------------
     sticks:   dense  smooth     PW     G-vecs:    dense   smooth      PW
     Sum         433     433    139                 5961     5961    1067

     Reading collected, re-writing distributed wavefunctions


     Dynamical matrices for ( 6, 6, 6)  uniform grid of q-points
     (  16 q-points):
       N         xq(1)         xq(2)         xq(3) 
       1   0.000000000   0.000000000   0.000000000
       2  -0.166666667   0.166666667  -0.166666667
       3  -0.333333333   0.333333333  -0.333333333
       4   0.500000000  -0.500000000   0.500000000
       5   0.000000000   0.333333333   0.000000000
       6  -0.166666667   0.500000000  -0.166666667
       7   0.666666667  -0.333333333   0.666666667
       8   0.500000000  -0.166666667   0.500000000
       9   0.333333333   0.000000000   0.333333333
      10   0.000000000   0.666666667   0.000000000
      11   0.833333333  -0.166666667   0.833333333
      12   0.666666667  -0.000000000   0.666666667
      13   0.000000000  -1.000000000   0.000000000
      14   0.666666667  -0.333333333   1.000000000
      15   0.500000000  -0.166666667   0.833333333
      16  -0.333333333  -1.000000000   0.000000000

     Saving dvscf to file. Distribute only q points, not irreducible represetations.

     Calculation of q =    0.0000000   0.0000000   0.0000000

     phonons of Si                                                              

     bravais-lattice index     =            2
     lattice parameter (alat)  =      10.2000  a.u.
     unit-cell volume          =     265.3020 (a.u.)^3
     number of atoms/cell      =            2
     number of atomic types    =            1
     kinetic-energy cut-off    =      30.0000  Ry
     charge density cut-off    =     120.0000  Ry
     convergence threshold     =      1.0E-14
     beta                      =       0.7000
     number of iterations used =            4
     Exchange-correlation= PZ
                           (   1   1   0   0   0   0   0)


     celldm(1)=   10.20000  celldm(2)=    0.00000  celldm(3)=    0.00000
     celldm(4)=    0.00000  celldm(5)=    0.00000  celldm(6)=    0.00000

     crystal axes: (cart. coord. in units of alat)
               a(1) = ( -0.5000  0.0000  0.5000 )  
               a(2) = (  0.0000  0.5000  0.5000 )  
               a(3) = ( -0.5000  0.5000  0.0000 )  

     reciprocal axes: (cart. coord. in units 2 pi/alat)
               b(1) = ( -1.0000 -1.0000  1.0000 )  
               b(2) = (  1.0000  1.0000  1.0000 )  
               b(3) = ( -1.0000  1.0000 -1.0000 )  


     Atoms inside the unit cell: 

     Cartesian axes

     site n.  atom      mass           positions (alat units)
        1     Si  28.0860   tau(    1) = (    0.00000    0.00000    0.00000  )
        2     Si  28.0860   tau(    2) = (    0.25000    0.25000    0.25000  )

     Computing dynamical matrix for 
                    q = (   0.0000000   0.0000000   0.0000000 )

     49 Sym.Ops. (with q -> -q+G )


     G cutoff =  316.2437  (   5961 G-vectors)     FFT grid: ( 32, 32, 32)
     number of k points=    16

     PseudoPot. # 1 for Si read from file:
     ../../pseudoPotentials/Si.pz-vbc.UPF
     MD5 check sum: 9f25e6ff280f3123e9b3a84715b2e9c9
     Pseudo is Norm-conserving, Zval =  4.0
     Generated by new atomic code, or converted to UPF format
     Using radial grid of  431 points,  2 beta functions with: 
                l(1) =   0
                l(2) =   1

     Mode symmetry, O_h (m-3m)  point group:


     Electric field:
     Dielectric constant
     Born effective charges in two ways 


     Atomic displacements:
     There are    2 irreducible representations

     Representation     1      3 modes -  To be done

     Representation     2      3 modes -  To be done



     Alpha used in Ewald sum =   1.3000
     PHONON       :      0.22s CPU      0.23s WALL


     Electric Fields Calculation

      iter #   1 total cpu time :     0.8 secs   av.it.:   6.8
      thresh= 1.000E-02 alpha_mix =  0.700 |ddv_scf|^2 =  2.254E-07

      iter #   2 total cpu time :     1.1 secs   av.it.:  10.3
      thresh= 4.748E-05 alpha_mix =  0.700 |ddv_scf|^2 =  8.868E-09

      iter #   3 total cpu time :     1.4 secs   av.it.:  10.2
      thresh= 9.417E-06 alpha_mix =  0.700 |ddv_scf|^2 =  1.048E-10

      iter #   4 total cpu time :     1.7 secs   av.it.:  10.4
      thresh= 1.024E-06 alpha_mix =  0.700 |ddv_scf|^2 =  4.674E-13

      iter #   5 total cpu time :     2.0 secs   av.it.:  10.3
      thresh= 6.837E-08 alpha_mix =  0.700 |ddv_scf|^2 =  4.239E-16

     End of electric fields calculation

          Dielectric constant in cartesian axis 

          (      16.292216590       0.000000000       0.000000000 )
          (       0.000000000      16.292216590      -0.000000000 )
          (       0.000000000      -0.000000000      16.292216590 )

          Effective charges (d Force / dE) in cartesian axis

           atom      1   Si 
      Ex  (       -0.31842        0.00000        0.00000 )
      Ey  (        0.00000       -0.31842       -0.00000 )
      Ez  (        0.00000       -0.00000       -0.31842 )
           atom      2   Si 
      Ex  (       -0.31842        0.00000       -0.00000 )
      Ey  (        0.00000       -0.31842       -0.00000 )
      Ez  (       -0.00000       -0.00000       -0.31842 )


     Representation #   1 modes #   1   2   3

     Self-consistent Calculation

      iter #   1 total cpu time :     2.5 secs   av.it.:   4.9
      thresh= 1.000E-02 alpha_mix =  0.700 |ddv_scf|^2 =  4.653E-08

      iter #   2 total cpu time :     2.8 secs   av.it.:  10.2
      thresh= 2.157E-05 alpha_mix =  0.700 |ddv_scf|^2 =  8.348E-10

      iter #   3 total cpu time :     3.2 secs   av.it.:  10.2
      thresh= 2.889E-06 alpha_mix =  0.700 |ddv_scf|^2 =  1.094E-11

      iter #   4 total cpu time :     3.6 secs   av.it.:  10.0
      thresh= 3.308E-07 alpha_mix =  0.700 |ddv_scf|^2 =  8.617E-15

     End of self-consistent calculation

     Convergence has been achieved 


     Representation #   2 modes #   4   5   6

     Self-consistent Calculation

      iter #   1 total cpu time :     4.0 secs   av.it.:   5.1
      thresh= 1.000E-02 alpha_mix =  0.700 |ddv_scf|^2 =  3.306E-08

      iter #   2 total cpu time :     4.4 secs   av.it.:  10.3
      thresh= 1.818E-05 alpha_mix =  0.700 |ddv_scf|^2 =  1.239E-09

      iter #   3 total cpu time :     4.8 secs   av.it.:  10.3
      thresh= 3.520E-06 alpha_mix =  0.700 |ddv_scf|^2 =  1.392E-11

      iter #   4 total cpu time :     5.1 secs   av.it.:  10.2
      thresh= 3.731E-07 alpha_mix =  0.700 |ddv_scf|^2 =  2.984E-14

      iter #   5 total cpu time :     5.5 secs   av.it.:  10.5
      thresh= 1.727E-08 alpha_mix =  0.700 |ddv_scf|^2 =  4.127E-16

     End of self-consistent calculation

     Convergence has been achieved 

     Number of q in the star =    1
     List of q in the star:
          1   0.000000000   0.000000000   0.000000000

          Dielectric constant in cartesian axis 

          (      16.292216590       0.000000000       0.000000000 )
          (       0.000000000      16.292216590      -0.000000000 )
          (       0.000000000      -0.000000000      16.292216590 )

          Effective charges (d Force / dE) in cartesian axis

           atom      1   Si 
      Ex  (       -0.31842        0.00000        0.00000 )
      Ey  (        0.00000       -0.31842       -0.00000 )
      Ez  (        0.00000       -0.00000       -0.31842 )
           atom      2   Si 
      Ex  (       -0.31842        0.00000       -0.00000 )
      Ey  (        0.00000       -0.31842       -0.00000 )
      Ez  (       -0.00000       -0.00000       -0.31842 )

          Effective charges (d P / du) in cartesian axis 

           atom      1   Si 
      Px  (       -0.31843       -0.00000       -0.00000 )
      Py  (       -0.00000       -0.31843        0.00000 )
      Pz  (       -0.00000        0.00000       -0.31843 )
           atom      2   Si 
      Px  (       -0.31843        0.00000       -0.00000 )
      Py  (        0.00000       -0.31843        0.00000 )
      Pz  (       -0.00000       -0.00000       -0.31843 )

     Diagonalizing the dynamical matrix

     q = (    0.000000000   0.000000000   0.000000000 ) 

 **************************************************************************
     freq (    1) =      -0.108518 [THz] =      -3.619777 [cm-1]
     freq (    2) =      -0.108518 [THz] =      -3.619777 [cm-1]
     freq (    3) =      -0.108518 [THz] =      -3.619777 [cm-1]
     freq (    4) =      15.347710 [THz] =     511.944506 [cm-1]
     freq (    5) =      15.347710 [THz] =     511.944506 [cm-1]
     freq (    6) =      15.347710 [THz] =     511.944506 [cm-1]
 **************************************************************************

     Mode symmetry, O_h (m-3m)  point group:

     freq (   1-   3) =         -3.6  [cm-1]   --> T_1u G_15  G_4- I  
     freq (   4-   6) =        511.9  [cm-1]   --> T_2g G_25' G_5+ R  

     Number of q in the star =    1
     List of q in the star:
          1   0.000000000   0.000000000   0.000000000

     Calculation of q =   -0.1666667   0.1666667  -0.1666667

     Subspace diagonalization in iterative solution of the eigenvalue problem:
     a serial algorithm will be used

     Message from routine kpoint_grid:
     ATTENTION: skip check of k-points equivalence

     G-vector sticks info
     --------------------
     sticks:   dense  smooth     PW     G-vecs:    dense   smooth      PW
     Sum         433     433    151                 5961     5961    1243


     Title: 
     phonons of Si                                                              


     bravais-lattice index     =            2
     lattice parameter (alat)  =      10.2000  a.u.
     unit-cell volume          =     265.3020 (a.u.)^3
     number of atoms/cell      =            2
     number of atomic types    =            1
     number of electrons       =         8.00
     number of Kohn-Sham states=           12
     kinetic-energy cutoff     =      30.0000  Ry
     charge density cutoff     =     120.0000  Ry
     Exchange-correlation= PZ
                           (   1   1   0   0   0   0   0)

     celldm(1)=  10.200000  celldm(2)=   0.000000  celldm(3)=   0.000000
     celldm(4)=   0.000000  celldm(5)=   0.000000  celldm(6)=   0.000000

     crystal axes: (cart. coord. in units of alat)
               a(1) = (  -0.500000   0.000000   0.500000 )  
               a(2) = (   0.000000   0.500000   0.500000 )  
               a(3) = (  -0.500000   0.500000   0.000000 )  

     reciprocal axes: (cart. coord. in units 2 pi/alat)
               b(1) = ( -1.000000 -1.000000  1.000000 )  
               b(2) = (  1.000000  1.000000  1.000000 )  
               b(3) = ( -1.000000  1.000000 -1.000000 )  


     PseudoPot. # 1 for Si read from file:
     ../../pseudoPotentials/Si.pz-vbc.UPF
     MD5 check sum: 9f25e6ff280f3123e9b3a84715b2e9c9
     Pseudo is Norm-conserving, Zval =  4.0
     Generated by new atomic code, or converted to UPF format
     Using radial grid of  431 points,  2 beta functions with: 
                l(1) =   0
                l(2) =   1

     atomic species   valence    mass     pseudopotential
        Si             4.00    28.08600     Si( 1.00)

     48 Sym. Ops., with inversion, found



   Cartesian axes

     site n.     atom                  positions (alat units)
         1           Si  tau(   1) = (   0.0000000   0.0000000   0.0000000  )
         2           Si  tau(   2) = (   0.2500000   0.2500000   0.2500000  )

     number of k points=   432

     Number of k-points >= 100: set verbosity='high' to print them.

     Dense  grid:     5961 G-vectors     FFT dimensions: (  32,  32,  32)

     Estimated max dynamical RAM per process >       4.42 MB

     Estimated total dynamical RAM >      17.68 MB

     The potential is recalculated from file :
     ./out/_ph0/silicon.q_2/silicon.save/charge-density

     Starting wfcs are    8 atomic +    4 random wfcs

     Band Structure Calculation
     Davidson diagonalization with overlap

     ethr =  1.25E-10,  avg # of iterations = 20.0

     total cpu time spent up to now is       10.5 secs

     End of band structure calculation

     Number of k-points >= 100: set verbosity='high' to print the bands.

     highest occupied, lowest unoccupied level (ev):     6.2376    6.8644

     Writing output data file ./out/_ph0/silicon.q_2/silicon.save/

     phonons of Si                                                              

     bravais-lattice index     =            2
     lattice parameter (alat)  =      10.2000  a.u.
     unit-cell volume          =     265.3020 (a.u.)^3
     number of atoms/cell      =            2
     number of atomic types    =            1
     kinetic-energy cut-off    =      30.0000  Ry
     charge density cut-off    =     120.0000  Ry
     convergence threshold     =      1.0E-14
     beta                      =       0.7000
     number of iterations used =            4
     Exchange-correlation= PZ
                           (   1   1   0   0   0   0   0)


     celldm(1)=   10.20000  celldm(2)=    0.00000  celldm(3)=    0.00000
     celldm(4)=    0.00000  celldm(5)=    0.00000  celldm(6)=    0.00000

     crystal axes: (cart. coord. in units of alat)
               a(1) = ( -0.5000  0.0000  0.5000 )  
               a(2) = (  0.0000  0.5000  0.5000 )  
               a(3) = ( -0.5000  0.5000  0.0000 )  

     reciprocal axes: (cart. coord. in units 2 pi/alat)
               b(1) = ( -1.0000 -1.0000  1.0000 )  
               b(2) = (  1.0000  1.0000  1.0000 )  
               b(3) = ( -1.0000  1.0000 -1.0000 )  


     Atoms inside the unit cell: 

     Cartesian axes

     site n.  atom      mass           positions (alat units)
        1     Si  28.0860   tau(    1) = (    0.00000    0.00000    0.00000  )
        2     Si  28.0860   tau(    2) = (    0.25000    0.25000    0.25000  )

     Computing dynamical matrix for 
                    q = (  -0.1666667   0.1666667  -0.1666667 )

      6 Sym.Ops. (no q -> -q+G )


     G cutoff =  316.2437  (   5961 G-vectors)     FFT grid: ( 32, 32, 32)
     number of k points=   432

     PseudoPot. # 1 for Si read from file:
     ../../pseudoPotentials/Si.pz-vbc.UPF
     MD5 check sum: 9f25e6ff280f3123e9b3a84715b2e9c9
     Pseudo is Norm-conserving, Zval =  4.0
     Generated by new atomic code, or converted to UPF format
     Using radial grid of  431 points,  2 beta functions with: 
                l(1) =   0
                l(2) =   1

     Mode symmetry, C_3v (3m)   point group:


     Atomic displacements:
     There are    4 irreducible representations

     Representation     1      1 modes -  To be done

     Representation     2      1 modes -  To be done

     Representation     3      2 modes -  To be done

     Representation     4      2 modes -  To be done



     Alpha used in Ewald sum =   1.3000
     PHONON       :     16.17s CPU     16.53s WALL



     Representation #   1 mode #   1

     Self-consistent Calculation

      iter #   1 total cpu time :    17.8 secs   av.it.:   5.9
      thresh= 1.000E-02 alpha_mix =  0.700 |ddv_scf|^2 =  2.766E-03

      iter #   2 total cpu time :    19.1 secs   av.it.:   7.8
      thresh= 5.260E-03 alpha_mix =  0.700 |ddv_scf|^2 =  8.188E-02

      iter #   3 total cpu time :    20.2 secs   av.it.:   6.9
      thresh= 1.000E-02 alpha_mix =  0.700 |ddv_scf|^2 =  8.777E-07

      iter #   4 total cpu time :    21.5 secs   av.it.:   8.2
      thresh= 9.369E-05 alpha_mix =  0.700 |ddv_scf|^2 =  7.726E-08

      iter #   5 total cpu time :    22.8 secs   av.it.:   8.0
      thresh= 2.780E-05 alpha_mix =  0.700 |ddv_scf|^2 =  1.414E-09

      iter #   6 total cpu time :    23.9 secs   av.it.:   6.8
      thresh= 3.760E-06 alpha_mix =  0.700 |ddv_scf|^2 =  7.683E-10

      iter #   7 total cpu time :    25.1 secs   av.it.:   7.4
      thresh= 2.772E-06 alpha_mix =  0.700 |ddv_scf|^2 =  2.170E-11

      iter #   8 total cpu time :    26.4 secs   av.it.:   7.9
      thresh= 4.658E-07 alpha_mix =  0.700 |ddv_scf|^2 =  1.089E-12

      iter #   9 total cpu time :    27.5 secs   av.it.:   6.8
      thresh= 1.044E-07 alpha_mix =  0.700 |ddv_scf|^2 =  5.190E-15

     End of self-consistent calculation

     Convergence has been achieved 


     Representation #   2 mode #   2

     Self-consistent Calculation

      iter #   1 total cpu time :    29.3 secs   av.it.:   5.9
      thresh= 1.000E-02 alpha_mix =  0.700 |ddv_scf|^2 =  2.766E-03

      iter #   2 total cpu time :    30.5 secs   av.it.:   7.8
      thresh= 5.260E-03 alpha_mix =  0.700 |ddv_scf|^2 =  8.188E-02

      iter #   3 total cpu time :    31.7 secs   av.it.:   6.9
      thresh= 1.000E-02 alpha_mix =  0.700 |ddv_scf|^2 =  8.787E-07

      iter #   4 total cpu time :    33.0 secs   av.it.:   8.2
      thresh= 9.374E-05 alpha_mix =  0.700 |ddv_scf|^2 =  7.775E-08

      iter #   5 total cpu time :    34.3 secs   av.it.:   7.9
      thresh= 2.788E-05 alpha_mix =  0.700 |ddv_scf|^2 =  3.228E-09

      iter #   6 total cpu time :    35.3 secs   av.it.:   6.4
      thresh= 5.682E-06 alpha_mix =  0.700 |ddv_scf|^2 =  3.182E-10

      iter #   7 total cpu time :    36.7 secs   av.it.:   8.0
      thresh= 1.784E-06 alpha_mix =  0.700 |ddv_scf|^2 =  2.269E-11

      iter #   8 total cpu time :    37.9 secs   av.it.:   7.9
      thresh= 4.763E-07 alpha_mix =  0.700 |ddv_scf|^2 =  1.057E-12

      iter #   9 total cpu time :    39.0 secs   av.it.:   6.8
      thresh= 1.028E-07 alpha_mix =  0.700 |ddv_scf|^2 =  5.099E-15

     End of self-consistent calculation

     Convergence has been achieved 


     Representation #   3 modes #   3   4

     Self-consistent Calculation

      iter #   1 total cpu time :    42.0 secs   av.it.:   5.1
      thresh= 1.000E-02 alpha_mix =  0.700 |ddv_scf|^2 =  1.087E-07

      iter #   2 total cpu time :    45.2 secs   av.it.:  10.3
      thresh= 3.297E-05 alpha_mix =  0.700 |ddv_scf|^2 =  4.632E-09

      iter #   3 total cpu time :    48.4 secs   av.it.:  10.1
      thresh= 6.806E-06 alpha_mix =  0.700 |ddv_scf|^2 =  3.645E-11

      iter #   4 total cpu time :    51.6 secs   av.it.:  10.1
      thresh= 6.037E-07 alpha_mix =  0.700 |ddv_scf|^2 =  2.249E-12

      iter #   5 total cpu time :    54.7 secs   av.it.:  10.0
      thresh= 1.500E-07 alpha_mix =  0.700 |ddv_scf|^2 =  3.856E-15

     End of self-consistent calculation

     Convergence has been achieved 


     Representation #   4 modes #   5   6

     Self-consistent Calculation

      iter #   1 total cpu time :    57.9 secs   av.it.:   5.2
      thresh= 1.000E-02 alpha_mix =  0.700 |ddv_scf|^2 =  1.087E-07

      iter #   2 total cpu time :    61.0 secs   av.it.:  10.3
      thresh= 3.297E-05 alpha_mix =  0.700 |ddv_scf|^2 =  4.633E-09

      iter #   3 total cpu time :    64.4 secs   av.it.:  10.2
      thresh= 6.807E-06 alpha_mix =  0.700 |ddv_scf|^2 =  3.645E-11

      iter #   4 total cpu time :    69.2 secs   av.it.:  10.1
      thresh= 6.037E-07 alpha_mix =  0.700 |ddv_scf|^2 =  2.248E-12

      iter #   5 total cpu time :    73.5 secs   av.it.:  10.1
      thresh= 1.499E-07 alpha_mix =  0.700 |ddv_scf|^2 =  3.853E-15

     End of self-consistent calculation

     Convergence has been achieved 

     Number of q in the star =    8
     List of q in the star:
          1  -0.166666667   0.166666667  -0.166666667
          2   0.166666667   0.166666667   0.166666667
          3  -0.166666667  -0.166666667  -0.166666667
          4   0.166666667  -0.166666667   0.166666667
          5   0.166666667  -0.166666667  -0.166666667
          6   0.166666667   0.166666667  -0.166666667
          7  -0.166666667  -0.166666667   0.166666667
          8  -0.166666667   0.166666667   0.166666667

     Diagonalizing the dynamical matrix

     q = (   -0.166666667   0.166666667  -0.166666667 ) 

 **************************************************************************
     freq (    1) =       2.227947 [THz] =      74.316319 [cm-1]
     freq (    2) =       2.227947 [THz] =      74.316319 [cm-1]
     freq (    3) =       4.749229 [THz] =     158.417213 [cm-1]
     freq (    4) =      14.997279 [THz] =     500.255387 [cm-1]
     freq (    5) =      14.999765 [THz] =     500.338290 [cm-1]
     freq (    6) =      14.999765 [THz] =     500.338290 [cm-1]
 **************************************************************************

     Mode symmetry, C_3v (3m)   point group:

     freq (   1-   2) =         74.3  [cm-1]   --> E    L_3           
     freq (   3-   3) =        158.4  [cm-1]   --> A_1  L_1           
     freq (   4-   4) =        500.3  [cm-1]   --> A_1  L_1           
     freq (   5-   6) =        500.3  [cm-1]   --> E    L_3           

     Number of q in the star =    8
     List of q in the star:
          1  -0.166666667   0.166666667  -0.166666667
          2   0.166666667   0.166666667   0.166666667
          3  -0.166666667  -0.166666667  -0.166666667
          4   0.166666667  -0.166666667   0.166666667
          5   0.166666667  -0.166666667  -0.166666667
          6   0.166666667   0.166666667  -0.166666667
          7  -0.166666667  -0.166666667   0.166666667
          8  -0.166666667   0.166666667   0.166666667

     Calculation of q =   -0.3333333   0.3333333  -0.3333333
     Message from routine kpoint_grid:
     ATTENTION: skip check of k-points equivalence

     G-vector sticks info
     --------------------
     sticks:   dense  smooth     PW     G-vecs:    dense   smooth      PW
     Sum         433     433    163                 5961     5961    1363


     Title: 
     phonons of Si                                                              


     bravais-lattice index     =            2
     lattice parameter (alat)  =      10.2000  a.u.
     unit-cell volume          =     265.3020 (a.u.)^3
     number of atoms/cell      =            2
     number of atomic types    =            1
     number of electrons       =         8.00
     number of Kohn-Sham states=           12
     kinetic-energy cutoff     =      30.0000  Ry
     charge density cutoff     =     120.0000  Ry
     Exchange-correlation= PZ
                           (   1   1   0   0   0   0   0)

     celldm(1)=  10.200000  celldm(2)=   0.000000  celldm(3)=   0.000000
     celldm(4)=   0.000000  celldm(5)=   0.000000  celldm(6)=   0.000000

     crystal axes: (cart. coord. in units of alat)
               a(1) = (  -0.500000   0.000000   0.500000 )  
               a(2) = (   0.000000   0.500000   0.500000 )  
               a(3) = (  -0.500000   0.500000   0.000000 )  

     reciprocal axes: (cart. coord. in units 2 pi/alat)
               b(1) = ( -1.000000 -1.000000  1.000000 )  
               b(2) = (  1.000000  1.000000  1.000000 )  
               b(3) = ( -1.000000  1.000000 -1.000000 )  


     PseudoPot. # 1 for Si read from file:
     ../../pseudoPotentials/Si.pz-vbc.UPF
     MD5 check sum: 9f25e6ff280f3123e9b3a84715b2e9c9
     Pseudo is Norm-conserving, Zval =  4.0
     Generated by new atomic code, or converted to UPF format
     Using radial grid of  431 points,  2 beta functions with: 
                l(1) =   0
                l(2) =   1

     atomic species   valence    mass     pseudopotential
        Si             4.00    28.08600     Si( 1.00)

     48 Sym. Ops., with inversion, found



   Cartesian axes

     site n.     atom                  positions (alat units)
         1           Si  tau(   1) = (   0.0000000   0.0000000   0.0000000  )
         2           Si  tau(   2) = (   0.2500000   0.2500000   0.2500000  )

     number of k points=   432

     Number of k-points >= 100: set verbosity='high' to print them.

     Dense  grid:     5961 G-vectors     FFT dimensions: (  32,  32,  32)

     Estimated max dynamical RAM per process >       4.42 MB

     Estimated total dynamical RAM >      17.68 MB

     The potential is recalculated from file :
     ./out/_ph0/silicon.q_3/silicon.save/charge-density

     Starting wfcs are    8 atomic +    4 random wfcs

     Band Structure Calculation
     Davidson diagonalization with overlap

     ethr =  1.25E-10,  avg # of iterations = 19.9

     total cpu time spent up to now is       26.0 secs

     End of band structure calculation

     Number of k-points >= 100: set verbosity='high' to print the bands.

     highest occupied, lowest unoccupied level (ev):     6.2376    6.8644

     Writing output data file ./out/_ph0/silicon.q_3/silicon.save/

     phonons of Si                                                              

     bravais-lattice index     =            2
     lattice parameter (alat)  =      10.2000  a.u.
     unit-cell volume          =     265.3020 (a.u.)^3
     number of atoms/cell      =            2
     number of atomic types    =            1
     kinetic-energy cut-off    =      30.0000  Ry
     charge density cut-off    =     120.0000  Ry
     convergence threshold     =      1.0E-14
     beta                      =       0.7000
     number of iterations used =            4
     Exchange-correlation= PZ
                           (   1   1   0   0   0   0   0)


     celldm(1)=   10.20000  celldm(2)=    0.00000  celldm(3)=    0.00000
     celldm(4)=    0.00000  celldm(5)=    0.00000  celldm(6)=    0.00000

     crystal axes: (cart. coord. in units of alat)
               a(1) = ( -0.5000  0.0000  0.5000 )  
               a(2) = (  0.0000  0.5000  0.5000 )  
               a(3) = ( -0.5000  0.5000  0.0000 )  

     reciprocal axes: (cart. coord. in units 2 pi/alat)
               b(1) = ( -1.0000 -1.0000  1.0000 )  
               b(2) = (  1.0000  1.0000  1.0000 )  
               b(3) = ( -1.0000  1.0000 -1.0000 )  


     Atoms inside the unit cell: 

     Cartesian axes

     site n.  atom      mass           positions (alat units)
        1     Si  28.0860   tau(    1) = (    0.00000    0.00000    0.00000  )
        2     Si  28.0860   tau(    2) = (    0.25000    0.25000    0.25000  )

     Computing dynamical matrix for 
                    q = (  -0.3333333   0.3333333  -0.3333333 )

      6 Sym.Ops. (no q -> -q+G )


     G cutoff =  316.2437  (   5961 G-vectors)     FFT grid: ( 32, 32, 32)
     number of k points=   432

     PseudoPot. # 1 for Si read from file:
     ../../pseudoPotentials/Si.pz-vbc.UPF
     MD5 check sum: 9f25e6ff280f3123e9b3a84715b2e9c9
     Pseudo is Norm-conserving, Zval =  4.0
     Generated by new atomic code, or converted to UPF format
     Using radial grid of  431 points,  2 beta functions with: 
                l(1) =   0
                l(2) =   1

     Mode symmetry, C_3v (3m)   point group:


     Atomic displacements:
     There are    4 irreducible representations

     Representation     1      1 modes -  To be done

     Representation     2      1 modes -  To be done

     Representation     3      2 modes -  To be done

     Representation     4      2 modes -  To be done



     Alpha used in Ewald sum =   1.3000
     PHONON       :   1m32.91s CPU   1m35.27s WALL



     Representation #   1 mode #   1

     Self-consistent Calculation

      iter #   1 total cpu time :    96.6 secs   av.it.:   5.9
      thresh= 1.000E-02 alpha_mix =  0.700 |ddv_scf|^2 =  1.901E-04

      iter #   2 total cpu time :    98.0 secs   av.it.:   8.7
      thresh= 1.379E-03 alpha_mix =  0.700 |ddv_scf|^2 =  1.474E-03

      iter #   3 total cpu time :    99.2 secs   av.it.:   7.3
      thresh= 3.839E-03 alpha_mix =  0.700 |ddv_scf|^2 =  2.961E-07

      iter #   4 total cpu time :   100.7 secs   av.it.:   8.9
      thresh= 5.441E-05 alpha_mix =  0.700 |ddv_scf|^2 =  5.051E-09

      iter #   5 total cpu time :   102.1 secs   av.it.:   8.8
      thresh= 7.107E-06 alpha_mix =  0.700 |ddv_scf|^2 =  3.845E-11

      iter #   6 total cpu time :   103.6 secs   av.it.:   9.4
      thresh= 6.201E-07 alpha_mix =  0.700 |ddv_scf|^2 =  1.940E-11

      iter #   7 total cpu time :   105.0 secs   av.it.:   8.7
      thresh= 4.404E-07 alpha_mix =  0.700 |ddv_scf|^2 =  3.760E-11

      iter #   8 total cpu time :   106.4 secs   av.it.:   7.6
      thresh= 6.132E-07 alpha_mix =  0.700 |ddv_scf|^2 =  1.147E-13

      iter #   9 total cpu time :   107.8 secs   av.it.:   8.7
      thresh= 3.387E-08 alpha_mix =  0.700 |ddv_scf|^2 =  2.894E-13

      iter #  10 total cpu time :   109.1 secs   av.it.:   7.6
      thresh= 5.379E-08 alpha_mix =  0.700 |ddv_scf|^2 =  8.328E-17

     End of self-consistent calculation

     Convergence has been achieved 


     Representation #   2 mode #   2

     Self-consistent Calculation

      iter #   1 total cpu time :   111.0 secs   av.it.:   5.9
      thresh= 1.000E-02 alpha_mix =  0.700 |ddv_scf|^2 =  1.901E-04

      iter #   2 total cpu time :   112.4 secs   av.it.:   8.7
      thresh= 1.379E-03 alpha_mix =  0.700 |ddv_scf|^2 =  1.474E-03

      iter #   3 total cpu time :   113.7 secs   av.it.:   7.3
      thresh= 3.839E-03 alpha_mix =  0.700 |ddv_scf|^2 =  2.960E-07

      iter #   4 total cpu time :   115.1 secs   av.it.:   8.8
      thresh= 5.441E-05 alpha_mix =  0.700 |ddv_scf|^2 =  5.043E-09

      iter #   5 total cpu time :   117.0 secs   av.it.:   8.8
      thresh= 7.101E-06 alpha_mix =  0.700 |ddv_scf|^2 =  3.992E-11

      iter #   6 total cpu time :   118.7 secs   av.it.:   9.4
      thresh= 6.318E-07 alpha_mix =  0.700 |ddv_scf|^2 =  3.088E-11

      iter #   7 total cpu time :   120.1 secs   av.it.:   8.4
      thresh= 5.557E-07 alpha_mix =  0.700 |ddv_scf|^2 =  3.090E-11

      iter #   8 total cpu time :   121.5 secs   av.it.:   7.8
      thresh= 5.559E-07 alpha_mix =  0.700 |ddv_scf|^2 =  1.126E-13

      iter #   9 total cpu time :   123.0 secs   av.it.:   8.7
      thresh= 3.355E-08 alpha_mix =  0.700 |ddv_scf|^2 =  2.878E-13

      iter #  10 total cpu time :   124.5 secs   av.it.:   7.6
      thresh= 5.365E-08 alpha_mix =  0.700 |ddv_scf|^2 =  7.276E-17

     End of self-consistent calculation

     Convergence has been achieved 


     Representation #   3 modes #   3   4

     Self-consistent Calculation

      iter #   1 total cpu time :   127.5 secs   av.it.:   5.2
      thresh= 1.000E-02 alpha_mix =  0.700 |ddv_scf|^2 =  1.426E-07

      iter #   2 total cpu time :   131.0 secs   av.it.:  10.2
      thresh= 3.776E-05 alpha_mix =  0.700 |ddv_scf|^2 =  9.787E-09

      iter #   3 total cpu time :   134.1 secs   av.it.:  10.0
      thresh= 9.893E-06 alpha_mix =  0.700 |ddv_scf|^2 =  4.119E-11

      iter #   4 total cpu time :   137.3 secs   av.it.:  10.0
      thresh= 6.418E-07 alpha_mix =  0.700 |ddv_scf|^2 =  2.657E-12

      iter #   5 total cpu time :   140.5 secs   av.it.:   9.9
      thresh= 1.630E-07 alpha_mix =  0.700 |ddv_scf|^2 =  4.568E-15

     End of self-consistent calculation

     Convergence has been achieved 


     Representation #   4 modes #   5   6

     Self-consistent Calculation

      iter #   1 total cpu time :   143.8 secs   av.it.:   5.2
      thresh= 1.000E-02 alpha_mix =  0.700 |ddv_scf|^2 =  1.426E-07

      iter #   2 total cpu time :   147.1 secs   av.it.:  10.3
      thresh= 3.776E-05 alpha_mix =  0.700 |ddv_scf|^2 =  9.795E-09

      iter #   3 total cpu time :   150.2 secs   av.it.:  10.1
      thresh= 9.897E-06 alpha_mix =  0.700 |ddv_scf|^2 =  4.119E-11

      iter #   4 total cpu time :   153.5 secs   av.it.:  10.1
      thresh= 6.418E-07 alpha_mix =  0.700 |ddv_scf|^2 =  2.659E-12

      iter #   5 total cpu time :   156.7 secs   av.it.:  10.0
      thresh= 1.631E-07 alpha_mix =  0.700 |ddv_scf|^2 =  4.572E-15

     End of self-consistent calculation

     Convergence has been achieved 

     Number of q in the star =    8
     List of q in the star:
          1  -0.333333333   0.333333333  -0.333333333
          2   0.333333333   0.333333333   0.333333333
          3  -0.333333333  -0.333333333  -0.333333333
          4   0.333333333  -0.333333333   0.333333333
          5   0.333333333  -0.333333333  -0.333333333
          6   0.333333333   0.333333333  -0.333333333
          7  -0.333333333  -0.333333333   0.333333333
          8  -0.333333333   0.333333333   0.333333333

     Diagonalizing the dynamical matrix

     q = (   -0.333333333   0.333333333  -0.333333333 ) 

 **************************************************************************
     freq (    1) =       3.067929 [THz] =     102.335101 [cm-1]
     freq (    2) =       3.067929 [THz] =     102.335101 [cm-1]
     freq (    3) =       8.743513 [THz] =     291.652209 [cm-1]
     freq (    4) =      13.813874 [THz] =     460.781248 [cm-1]
     freq (    5) =      14.664903 [THz] =     489.168503 [cm-1]
     freq (    6) =      14.664903 [THz] =     489.168503 [cm-1]
 **************************************************************************

     Mode symmetry, C_3v (3m)   point group:

     freq (   1-   2) =        102.3  [cm-1]   --> E    L_3           
     freq (   3-   3) =        291.7  [cm-1]   --> A_1  L_1           
     freq (   4-   4) =        460.8  [cm-1]   --> A_1  L_1           
     freq (   5-   6) =        489.2  [cm-1]   --> E    L_3           

     Number of q in the star =    8
     List of q in the star:
          1  -0.333333333   0.333333333  -0.333333333
          2   0.333333333   0.333333333   0.333333333
          3  -0.333333333  -0.333333333  -0.333333333
          4   0.333333333  -0.333333333   0.333333333
          5   0.333333333  -0.333333333  -0.333333333
          6   0.333333333   0.333333333  -0.333333333
          7  -0.333333333  -0.333333333   0.333333333
          8  -0.333333333   0.333333333   0.333333333

     Calculation of q =    0.5000000  -0.5000000   0.5000000
     Message from routine kpoint_grid:
     ATTENTION: skip check of k-points equivalence

     G-vector sticks info
     --------------------
     sticks:   dense  smooth     PW     G-vecs:    dense   smooth      PW
     Sum         433     433    163                 5961     5961    1411


     Title: 
     phonons of Si                                                              


     bravais-lattice index     =            2
     lattice parameter (alat)  =      10.2000  a.u.
     unit-cell volume          =     265.3020 (a.u.)^3
     number of atoms/cell      =            2
     number of atomic types    =            1
     number of electrons       =         8.00
     number of Kohn-Sham states=           12
     kinetic-energy cutoff     =      30.0000  Ry
     charge density cutoff     =     120.0000  Ry
     Exchange-correlation= PZ
                           (   1   1   0   0   0   0   0)

     celldm(1)=  10.200000  celldm(2)=   0.000000  celldm(3)=   0.000000
     celldm(4)=   0.000000  celldm(5)=   0.000000  celldm(6)=   0.000000

     crystal axes: (cart. coord. in units of alat)
               a(1) = (  -0.500000   0.000000   0.500000 )  
               a(2) = (   0.000000   0.500000   0.500000 )  
               a(3) = (  -0.500000   0.500000   0.000000 )  

     reciprocal axes: (cart. coord. in units 2 pi/alat)
               b(1) = ( -1.000000 -1.000000  1.000000 )  
               b(2) = (  1.000000  1.000000  1.000000 )  
               b(3) = ( -1.000000  1.000000 -1.000000 )  


     PseudoPot. # 1 for Si read from file:
     ../../pseudoPotentials/Si.pz-vbc.UPF
     MD5 check sum: 9f25e6ff280f3123e9b3a84715b2e9c9
     Pseudo is Norm-conserving, Zval =  4.0
     Generated by new atomic code, or converted to UPF format
     Using radial grid of  431 points,  2 beta functions with: 
                l(1) =   0
                l(2) =   1

     atomic species   valence    mass     pseudopotential
        Si             4.00    28.08600     Si( 1.00)

     48 Sym. Ops., with inversion, found



   Cartesian axes

     site n.     atom                  positions (alat units)
         1           Si  tau(   1) = (   0.0000000   0.0000000   0.0000000  )
         2           Si  tau(   2) = (   0.2500000   0.2500000   0.2500000  )

     number of k points=   432

     Number of k-points >= 100: set verbosity='high' to print them.

     Dense  grid:     5961 G-vectors     FFT dimensions: (  32,  32,  32)

     Estimated max dynamical RAM per process >       4.42 MB

     Estimated total dynamical RAM >      17.69 MB

     The potential is recalculated from file :
     ./out/_ph0/silicon.q_4/silicon.save/charge-density

     Starting wfcs are    8 atomic +    4 random wfcs

     Band Structure Calculation
     Davidson diagonalization with overlap

     ethr =  1.25E-10,  avg # of iterations = 20.0

     total cpu time spent up to now is       39.5 secs

     End of band structure calculation

     Number of k-points >= 100: set verbosity='high' to print the bands.

     highest occupied, lowest unoccupied level (ev):     6.2376    6.8644

     Writing output data file ./out/_ph0/silicon.q_4/silicon.save/

     phonons of Si                                                              

     bravais-lattice index     =            2
     lattice parameter (alat)  =      10.2000  a.u.
     unit-cell volume          =     265.3020 (a.u.)^3
     number of atoms/cell      =            2
     number of atomic types    =            1
     kinetic-energy cut-off    =      30.0000  Ry
     charge density cut-off    =     120.0000  Ry
     convergence threshold     =      1.0E-14
     beta                      =       0.7000
     number of iterations used =            4
     Exchange-correlation= PZ
                           (   1   1   0   0   0   0   0)


     celldm(1)=   10.20000  celldm(2)=    0.00000  celldm(3)=    0.00000
     celldm(4)=    0.00000  celldm(5)=    0.00000  celldm(6)=    0.00000

     crystal axes: (cart. coord. in units of alat)
               a(1) = ( -0.5000  0.0000  0.5000 )  
               a(2) = (  0.0000  0.5000  0.5000 )  
               a(3) = ( -0.5000  0.5000  0.0000 )  

     reciprocal axes: (cart. coord. in units 2 pi/alat)
               b(1) = ( -1.0000 -1.0000  1.0000 )  
               b(2) = (  1.0000  1.0000  1.0000 )  
               b(3) = ( -1.0000  1.0000 -1.0000 )  


     Atoms inside the unit cell: 

     Cartesian axes

     site n.  atom      mass           positions (alat units)
        1     Si  28.0860   tau(    1) = (    0.00000    0.00000    0.00000  )
        2     Si  28.0860   tau(    2) = (    0.25000    0.25000    0.25000  )

     Computing dynamical matrix for 
                    q = (   0.5000000  -0.5000000   0.5000000 )

     13 Sym.Ops. (with q -> -q+G )


     G cutoff =  316.2437  (   5961 G-vectors)     FFT grid: ( 32, 32, 32)
     number of k points=   432

     PseudoPot. # 1 for Si read from file:
     ../../pseudoPotentials/Si.pz-vbc.UPF
     MD5 check sum: 9f25e6ff280f3123e9b3a84715b2e9c9
     Pseudo is Norm-conserving, Zval =  4.0
     Generated by new atomic code, or converted to UPF format
     Using radial grid of  431 points,  2 beta functions with: 
                l(1) =   0
                l(2) =   1


     Atomic displacements:
     There are    4 irreducible representations

     Representation     1      1 modes -  To be done

     Representation     2      1 modes -  To be done

     Representation     3      2 modes -  To be done

     Representation     4      2 modes -  To be done



     Alpha used in Ewald sum =   1.3000
     PHONON       :   2m49.51s CPU   2m54.11s WALL



     Representation #   1 mode #   1

     Self-consistent Calculation

      iter #   1 total cpu time :   175.4 secs   av.it.:   5.0
      thresh= 1.000E-02 alpha_mix =  0.700 |ddv_scf|^2 =  5.764E-06

      iter #   2 total cpu time :   176.9 secs   av.it.:   8.9
      thresh= 2.401E-04 alpha_mix =  0.700 |ddv_scf|^2 =  4.793E-06

      iter #   3 total cpu time :   178.2 secs   av.it.:   8.3
      thresh= 2.189E-04 alpha_mix =  0.700 |ddv_scf|^2 =  5.078E-10

      iter #   4 total cpu time :   179.8 secs   av.it.:   8.5
      thresh= 2.253E-06 alpha_mix =  0.700 |ddv_scf|^2 =  1.058E-11

      iter #   5 total cpu time :   181.2 secs   av.it.:   8.6
      thresh= 3.253E-07 alpha_mix =  0.700 |ddv_scf|^2 =  8.681E-14

      iter #   6 total cpu time :   182.6 secs   av.it.:   8.5
      thresh= 2.946E-08 alpha_mix =  0.700 |ddv_scf|^2 =  1.146E-15

     End of self-consistent calculation

     Convergence has been achieved 


     Representation #   2 mode #   2

     Self-consistent Calculation

      iter #   1 total cpu time :   184.4 secs   av.it.:   5.9
      thresh= 1.000E-02 alpha_mix =  0.700 |ddv_scf|^2 =  9.731E-05

      iter #   2 total cpu time :   185.9 secs   av.it.:   9.0
      thresh= 9.865E-04 alpha_mix =  0.700 |ddv_scf|^2 =  3.169E-04

      iter #   3 total cpu time :   187.2 secs   av.it.:   7.9
      thresh= 1.780E-03 alpha_mix =  0.700 |ddv_scf|^2 =  9.117E-09

      iter #   4 total cpu time :   188.7 secs   av.it.:   9.1
      thresh= 9.548E-06 alpha_mix =  0.700 |ddv_scf|^2 =  2.427E-10

      iter #   5 total cpu time :   190.2 secs   av.it.:   9.2
      thresh= 1.558E-06 alpha_mix =  0.700 |ddv_scf|^2 =  1.878E-11

      iter #   6 total cpu time :   191.6 secs   av.it.:   8.6
      thresh= 4.333E-07 alpha_mix =  0.700 |ddv_scf|^2 =  1.383E-14

      iter #   7 total cpu time :   193.0 secs   av.it.:   9.0
      thresh= 1.176E-08 alpha_mix =  0.700 |ddv_scf|^2 =  1.498E-15

     End of self-consistent calculation

     Convergence has been achieved 


     Representation #   3 modes #   3   4

     Self-consistent Calculation

      iter #   1 total cpu time :   196.1 secs   av.it.:   5.3
      thresh= 1.000E-02 alpha_mix =  0.700 |ddv_scf|^2 =  2.833E-07

      iter #   2 total cpu time :   199.3 secs   av.it.:  10.1
      thresh= 5.323E-05 alpha_mix =  0.700 |ddv_scf|^2 =  2.437E-08

      iter #   3 total cpu time :   202.4 secs   av.it.:  10.0
      thresh= 1.561E-05 alpha_mix =  0.700 |ddv_scf|^2 =  3.610E-11

      iter #   4 total cpu time :   205.7 secs   av.it.:   9.8
      thresh= 6.008E-07 alpha_mix =  0.700 |ddv_scf|^2 =  1.029E-13

      iter #   5 total cpu time :   208.9 secs   av.it.:  10.0
      thresh= 3.207E-08 alpha_mix =  0.700 |ddv_scf|^2 =  4.850E-16

     End of self-consistent calculation

     Convergence has been achieved 


     Representation #   4 modes #   5   6

     Self-consistent Calculation

      iter #   1 total cpu time :   212.3 secs   av.it.:   4.9
      thresh= 1.000E-02 alpha_mix =  0.700 |ddv_scf|^2 =  3.271E-08

      iter #   2 total cpu time :   215.5 secs   av.it.:  10.1
      thresh= 1.809E-05 alpha_mix =  0.700 |ddv_scf|^2 =  6.552E-10

      iter #   3 total cpu time :   218.7 secs   av.it.:  10.1
      thresh= 2.560E-06 alpha_mix =  0.700 |ddv_scf|^2 =  2.519E-11

      iter #   4 total cpu time :   221.9 secs   av.it.:   9.9
      thresh= 5.019E-07 alpha_mix =  0.700 |ddv_scf|^2 =  3.972E-14

      iter #   5 total cpu time :   225.1 secs   av.it.:  10.2
      thresh= 1.993E-08 alpha_mix =  0.700 |ddv_scf|^2 =  4.967E-16

     End of self-consistent calculation

     Convergence has been achieved 

     Number of q in the star =    4
     List of q in the star:
          1   0.500000000  -0.500000000   0.500000000
          2   0.500000000   0.500000000   0.500000000
          3  -0.500000000   0.500000000   0.500000000
          4   0.500000000   0.500000000  -0.500000000

     Diagonalizing the dynamical matrix

     q = (    0.500000000  -0.500000000   0.500000000 ) 

 **************************************************************************
     freq (    1) =       3.162097 [THz] =     105.476215 [cm-1]
     freq (    2) =       3.162097 [THz] =     105.476215 [cm-1]
     freq (    3) =      11.225192 [THz] =     374.432115 [cm-1]
     freq (    4) =      12.270683 [THz] =     409.305944 [cm-1]
     freq (    5) =      14.592056 [THz] =     486.738600 [cm-1]
     freq (    6) =      14.592056 [THz] =     486.738600 [cm-1]
 **************************************************************************

     Number of q in the star =    4
     List of q in the star:
          1   0.500000000  -0.500000000   0.500000000
          2   0.500000000   0.500000000   0.500000000
          3  -0.500000000   0.500000000   0.500000000
          4   0.500000000   0.500000000  -0.500000000

     Calculation of q =    0.0000000   0.3333333   0.0000000
     Message from routine kpoint_grid:
     ATTENTION: skip check of k-points equivalence

     G-vector sticks info
     --------------------
     sticks:   dense  smooth     PW     G-vecs:    dense   smooth      PW
     Sum         433     433    151                 5961     5961    1243


     Title: 
     phonons of Si                                                              


     bravais-lattice index     =            2
     lattice parameter (alat)  =      10.2000  a.u.
     unit-cell volume          =     265.3020 (a.u.)^3
     number of atoms/cell      =            2
     number of atomic types    =            1
     number of electrons       =         8.00
     number of Kohn-Sham states=           12
     kinetic-energy cutoff     =      30.0000  Ry
     charge density cutoff     =     120.0000  Ry
     Exchange-correlation= PZ
                           (   1   1   0   0   0   0   0)

     celldm(1)=  10.200000  celldm(2)=   0.000000  celldm(3)=   0.000000
     celldm(4)=   0.000000  celldm(5)=   0.000000  celldm(6)=   0.000000

     crystal axes: (cart. coord. in units of alat)
               a(1) = (  -0.500000   0.000000   0.500000 )  
               a(2) = (   0.000000   0.500000   0.500000 )  
               a(3) = (  -0.500000   0.500000   0.000000 )  

     reciprocal axes: (cart. coord. in units 2 pi/alat)
               b(1) = ( -1.000000 -1.000000  1.000000 )  
               b(2) = (  1.000000  1.000000  1.000000 )  
               b(3) = ( -1.000000  1.000000 -1.000000 )  


     PseudoPot. # 1 for Si read from file:
     ../../pseudoPotentials/Si.pz-vbc.UPF
     MD5 check sum: 9f25e6ff280f3123e9b3a84715b2e9c9
     Pseudo is Norm-conserving, Zval =  4.0
     Generated by new atomic code, or converted to UPF format
     Using radial grid of  431 points,  2 beta functions with: 
                l(1) =   0
                l(2) =   1

     atomic species   valence    mass     pseudopotential
        Si             4.00    28.08600     Si( 1.00)

     48 Sym. Ops., with inversion, found



   Cartesian axes

     site n.     atom                  positions (alat units)
         1           Si  tau(   1) = (   0.0000000   0.0000000   0.0000000  )
         2           Si  tau(   2) = (   0.2500000   0.2500000   0.2500000  )

     number of k points=   432

     Number of k-points >= 100: set verbosity='high' to print them.

     Dense  grid:     5961 G-vectors     FFT dimensions: (  32,  32,  32)

     Estimated max dynamical RAM per process >       4.42 MB

     Estimated total dynamical RAM >      17.68 MB

     The potential is recalculated from file :
     ./out/_ph0/silicon.q_5/silicon.save/charge-density

     Starting wfcs are    8 atomic +    4 random wfcs

     Band Structure Calculation
     Davidson diagonalization with overlap

     ethr =  1.25E-10,  avg # of iterations = 20.0

     total cpu time spent up to now is       53.2 secs

     End of band structure calculation

     Number of k-points >= 100: set verbosity='high' to print the bands.

     highest occupied, lowest unoccupied level (ev):     6.2376    6.8644

     Writing output data file ./out/_ph0/silicon.q_5/silicon.save/

     phonons of Si                                                              

     bravais-lattice index     =            2
     lattice parameter (alat)  =      10.2000  a.u.
     unit-cell volume          =     265.3020 (a.u.)^3
     number of atoms/cell      =            2
     number of atomic types    =            1
     kinetic-energy cut-off    =      30.0000  Ry
     charge density cut-off    =     120.0000  Ry
     convergence threshold     =      1.0E-14
     beta                      =       0.7000
     number of iterations used =            4
     Exchange-correlation= PZ
                           (   1   1   0   0   0   0   0)


     celldm(1)=   10.20000  celldm(2)=    0.00000  celldm(3)=    0.00000
     celldm(4)=    0.00000  celldm(5)=    0.00000  celldm(6)=    0.00000

     crystal axes: (cart. coord. in units of alat)
               a(1) = ( -0.5000  0.0000  0.5000 )  
               a(2) = (  0.0000  0.5000  0.5000 )  
               a(3) = ( -0.5000  0.5000  0.0000 )  

     reciprocal axes: (cart. coord. in units 2 pi/alat)
               b(1) = ( -1.0000 -1.0000  1.0000 )  
               b(2) = (  1.0000  1.0000  1.0000 )  
               b(3) = ( -1.0000  1.0000 -1.0000 )  


     Atoms inside the unit cell: 

     Cartesian axes

     site n.  atom      mass           positions (alat units)
        1     Si  28.0860   tau(    1) = (    0.00000    0.00000    0.00000  )
        2     Si  28.0860   tau(    2) = (    0.25000    0.25000    0.25000  )

     Computing dynamical matrix for 
                    q = (   0.0000000   0.3333333   0.0000000 )

      8 Sym.Ops. (no q -> -q+G )


     G cutoff =  316.2437  (   5961 G-vectors)     FFT grid: ( 32, 32, 32)
     number of k points=   432

     PseudoPot. # 1 for Si read from file:
     ../../pseudoPotentials/Si.pz-vbc.UPF
     MD5 check sum: 9f25e6ff280f3123e9b3a84715b2e9c9
     Pseudo is Norm-conserving, Zval =  4.0
     Generated by new atomic code, or converted to UPF format
     Using radial grid of  431 points,  2 beta functions with: 
                l(1) =   0
                l(2) =   1

     Mode symmetry, C_4v (4mm)  point group:


     Atomic displacements:
     There are    4 irreducible representations

     Representation     1      1 modes -  To be done

     Representation     2      1 modes -  To be done

     Representation     3      2 modes -  To be done

     Representation     4      2 modes -  To be done



     Alpha used in Ewald sum =   1.3000
     PHONON       :   3m55.07s CPU   4m 1.35s WALL



     Representation #   1 mode #   1

     Self-consistent Calculation

      iter #   1 total cpu time :   242.7 secs   av.it.:   6.0
      thresh= 1.000E-02 alpha_mix =  0.700 |ddv_scf|^2 =  3.701E-03

      iter #   2 total cpu time :   244.0 secs   av.it.:   7.9
      thresh= 6.084E-03 alpha_mix =  0.700 |ddv_scf|^2 =  1.015E-01

      iter #   3 total cpu time :   245.3 secs   av.it.:   7.2
      thresh= 1.000E-02 alpha_mix =  0.700 |ddv_scf|^2 =  1.328E-07

      iter #   4 total cpu time :   246.7 secs   av.it.:   8.2
      thresh= 3.644E-05 alpha_mix =  0.700 |ddv_scf|^2 =  6.276E-09

      iter #   5 total cpu time :   248.4 secs   av.it.:   7.7
      thresh= 7.922E-06 alpha_mix =  0.700 |ddv_scf|^2 =  2.895E-11

      iter #   6 total cpu time :   249.7 secs   av.it.:   8.1
      thresh= 5.381E-07 alpha_mix =  0.700 |ddv_scf|^2 =  1.391E-13

      iter #   7 total cpu time :   251.0 secs   av.it.:   8.0
      thresh= 3.730E-08 alpha_mix =  0.700 |ddv_scf|^2 =  3.894E-14

      iter #   8 total cpu time :   252.2 secs   av.it.:   6.4
      thresh= 1.973E-08 alpha_mix =  0.700 |ddv_scf|^2 =  1.579E-14

      iter #   9 total cpu time :   253.3 secs   av.it.:   5.9
      thresh= 1.257E-08 alpha_mix =  0.700 |ddv_scf|^2 =  4.846E-15

     End of self-consistent calculation

     Convergence has been achieved 


     Representation #   2 mode #   2

     Self-consistent Calculation

      iter #   1 total cpu time :   255.0 secs   av.it.:   5.1
      thresh= 1.000E-02 alpha_mix =  0.700 |ddv_scf|^2 =  7.528E-07

      iter #   2 total cpu time :   256.5 secs   av.it.:   9.4
      thresh= 8.677E-05 alpha_mix =  0.700 |ddv_scf|^2 =  9.297E-08

      iter #   3 total cpu time :   258.0 secs   av.it.:   9.3
      thresh= 3.049E-05 alpha_mix =  0.700 |ddv_scf|^2 =  1.142E-09

      iter #   4 total cpu time :   259.4 secs   av.it.:   9.0
      thresh= 3.379E-06 alpha_mix =  0.700 |ddv_scf|^2 =  2.756E-11

      iter #   5 total cpu time :   260.8 secs   av.it.:   8.8
      thresh= 5.250E-07 alpha_mix =  0.700 |ddv_scf|^2 =  1.112E-13

      iter #   6 total cpu time :   262.2 secs   av.it.:   8.7
      thresh= 3.335E-08 alpha_mix =  0.700 |ddv_scf|^2 =  3.439E-16

     End of self-consistent calculation

     Convergence has been achieved 


     Representation #   3 modes #   3   4

     Self-consistent Calculation

      iter #   1 total cpu time :   265.2 secs   av.it.:   5.2
      thresh= 1.000E-02 alpha_mix =  0.700 |ddv_scf|^2 =  1.959E-07

      iter #   2 total cpu time :   268.3 secs   av.it.:  10.3
      thresh= 4.426E-05 alpha_mix =  0.700 |ddv_scf|^2 =  1.849E-08

      iter #   3 total cpu time :   271.4 secs   av.it.:  10.0
      thresh= 1.360E-05 alpha_mix =  0.700 |ddv_scf|^2 =  4.545E-11

      iter #   4 total cpu time :   274.5 secs   av.it.:  10.0
      thresh= 6.742E-07 alpha_mix =  0.700 |ddv_scf|^2 =  3.045E-12

      iter #   5 total cpu time :   277.6 secs   av.it.:   9.9
      thresh= 1.745E-07 alpha_mix =  0.700 |ddv_scf|^2 =  2.899E-15

     End of self-consistent calculation

     Convergence has been achieved 


     Representation #   4 modes #   5   6

     Self-consistent Calculation

      iter #   1 total cpu time :   280.9 secs   av.it.:   5.2
      thresh= 1.000E-02 alpha_mix =  0.700 |ddv_scf|^2 =  1.375E-07

      iter #   2 total cpu time :   284.1 secs   av.it.:  10.3
      thresh= 3.708E-05 alpha_mix =  0.700 |ddv_scf|^2 =  1.250E-08

      iter #   3 total cpu time :   288.5 secs   av.it.:  10.0
      thresh= 1.118E-05 alpha_mix =  0.700 |ddv_scf|^2 =  4.710E-11

      iter #   4 total cpu time :   292.6 secs   av.it.:  10.0
      thresh= 6.863E-07 alpha_mix =  0.700 |ddv_scf|^2 =  3.035E-12

      iter #   5 total cpu time :   297.5 secs   av.it.:   9.9
      thresh= 1.742E-07 alpha_mix =  0.700 |ddv_scf|^2 =  3.866E-15

     End of self-consistent calculation

     Convergence has been achieved 

     Number of q in the star =    6
     List of q in the star:
          1   0.000000000   0.333333333   0.000000000
          2   0.333333333   0.000000000   0.000000000
          3   0.000000000   0.000000000   0.333333333
          4   0.000000000  -0.333333333   0.000000000
          5  -0.333333333   0.000000000   0.000000000
          6   0.000000000   0.000000000  -0.333333333

     Diagonalizing the dynamical matrix

     q = (    0.000000000   0.333333333   0.000000000 ) 

 **************************************************************************
     freq (    1) =       2.983488 [THz] =      99.518458 [cm-1]
     freq (    2) =       2.983488 [THz] =      99.518458 [cm-1]
     freq (    3) =       4.953724 [THz] =     165.238461 [cm-1]
     freq (    4) =      14.611734 [THz] =     487.394999 [cm-1]
     freq (    5) =      14.611734 [THz] =     487.394999 [cm-1]
     freq (    6) =      15.119133 [THz] =     504.319998 [cm-1]
 **************************************************************************

     Mode symmetry, C_4v (4mm)  point group:

     freq (   1-   2) =         99.5  [cm-1]   --> E    G_5 D_5       
     freq (   3-   3) =        165.2  [cm-1]   --> A_1  G_1 D_1       
     freq (   4-   5) =        487.4  [cm-1]   --> E    G_5 D_5       
     freq (   6-   6) =        504.3  [cm-1]   --> B_2  G_4 D_2'      

     Number of q in the star =    6
     List of q in the star:
          1   0.000000000   0.333333333   0.000000000
          2   0.333333333   0.000000000   0.000000000
          3   0.000000000   0.000000000   0.333333333
          4   0.000000000  -0.333333333   0.000000000
          5  -0.333333333   0.000000000   0.000000000
          6   0.000000000   0.000000000  -0.333333333

     Calculation of q =   -0.1666667   0.5000000  -0.1666667
     Message from routine kpoint_grid:
     ATTENTION: skip check of k-points equivalence

     G-vector sticks info
     --------------------
     sticks:   dense  smooth     PW     G-vecs:    dense   smooth      PW
     Sum         433     433    151                 5961     5961    1243


     Title: 
     phonons of Si                                                              


     bravais-lattice index     =            2
     lattice parameter (alat)  =      10.2000  a.u.
     unit-cell volume          =     265.3020 (a.u.)^3
     number of atoms/cell      =            2
     number of atomic types    =            1
     number of electrons       =         8.00
     number of Kohn-Sham states=           12
     kinetic-energy cutoff     =      30.0000  Ry
     charge density cutoff     =     120.0000  Ry
     Exchange-correlation= PZ
                           (   1   1   0   0   0   0   0)

     celldm(1)=  10.200000  celldm(2)=   0.000000  celldm(3)=   0.000000
     celldm(4)=   0.000000  celldm(5)=   0.000000  celldm(6)=   0.000000

     crystal axes: (cart. coord. in units of alat)
               a(1) = (  -0.500000   0.000000   0.500000 )  
               a(2) = (   0.000000   0.500000   0.500000 )  
               a(3) = (  -0.500000   0.500000   0.000000 )  

     reciprocal axes: (cart. coord. in units 2 pi/alat)
               b(1) = ( -1.000000 -1.000000  1.000000 )  
               b(2) = (  1.000000  1.000000  1.000000 )  
               b(3) = ( -1.000000  1.000000 -1.000000 )  


     PseudoPot. # 1 for Si read from file:
     ../../pseudoPotentials/Si.pz-vbc.UPF
     MD5 check sum: 9f25e6ff280f3123e9b3a84715b2e9c9
     Pseudo is Norm-conserving, Zval =  4.0
     Generated by new atomic code, or converted to UPF format
     Using radial grid of  431 points,  2 beta functions with: 
                l(1) =   0
                l(2) =   1

     atomic species   valence    mass     pseudopotential
        Si             4.00    28.08600     Si( 1.00)

     48 Sym. Ops., with inversion, found



   Cartesian axes

     site n.     atom                  positions (alat units)
         1           Si  tau(   1) = (   0.0000000   0.0000000   0.0000000  )
         2           Si  tau(   2) = (   0.2500000   0.2500000   0.2500000  )

     number of k points=   432

     Number of k-points >= 100: set verbosity='high' to print them.

     Dense  grid:     5961 G-vectors     FFT dimensions: (  32,  32,  32)

     Estimated max dynamical RAM per process >       4.42 MB

     Estimated total dynamical RAM >      17.68 MB

     The potential is recalculated from file :
     ./out/_ph0/silicon.q_6/silicon.save/charge-density

     Starting wfcs are    8 atomic +    4 random wfcs

     Band Structure Calculation
     Davidson diagonalization with overlap

     ethr =  1.25E-10,  avg # of iterations = 19.9

     total cpu time spent up to now is       69.4 secs

     End of band structure calculation

     Number of k-points >= 100: set verbosity='high' to print the bands.

     highest occupied, lowest unoccupied level (ev):     6.2376    6.8644

     Writing output data file ./out/_ph0/silicon.q_6/silicon.save/

     phonons of Si                                                              

     bravais-lattice index     =            2
     lattice parameter (alat)  =      10.2000  a.u.
     unit-cell volume          =     265.3020 (a.u.)^3
     number of atoms/cell      =            2
     number of atomic types    =            1
     kinetic-energy cut-off    =      30.0000  Ry
     charge density cut-off    =     120.0000  Ry
     convergence threshold     =      1.0E-14
     beta                      =       0.7000
     number of iterations used =            4
     Exchange-correlation= PZ
                           (   1   1   0   0   0   0   0)


     celldm(1)=   10.20000  celldm(2)=    0.00000  celldm(3)=    0.00000
     celldm(4)=    0.00000  celldm(5)=    0.00000  celldm(6)=    0.00000

     crystal axes: (cart. coord. in units of alat)
               a(1) = ( -0.5000  0.0000  0.5000 )  
               a(2) = (  0.0000  0.5000  0.5000 )  
               a(3) = ( -0.5000  0.5000  0.0000 )  

     reciprocal axes: (cart. coord. in units 2 pi/alat)
               b(1) = ( -1.0000 -1.0000  1.0000 )  
               b(2) = (  1.0000  1.0000  1.0000 )  
               b(3) = ( -1.0000  1.0000 -1.0000 )  


     Atoms inside the unit cell: 

     Cartesian axes

     site n.  atom      mass           positions (alat units)
        1     Si  28.0860   tau(    1) = (    0.00000    0.00000    0.00000  )
        2     Si  28.0860   tau(    2) = (    0.25000    0.25000    0.25000  )

     Computing dynamical matrix for 
                    q = (  -0.1666667   0.5000000  -0.1666667 )

      2 Sym.Ops. (no q -> -q+G )


     G cutoff =  316.2437  (   5961 G-vectors)     FFT grid: ( 32, 32, 32)
     number of k points=   432

     PseudoPot. # 1 for Si read from file:
     ../../pseudoPotentials/Si.pz-vbc.UPF
     MD5 check sum: 9f25e6ff280f3123e9b3a84715b2e9c9
     Pseudo is Norm-conserving, Zval =  4.0
     Generated by new atomic code, or converted to UPF format
     Using radial grid of  431 points,  2 beta functions with: 
                l(1) =   0
                l(2) =   1

     Mode symmetry, C_s (m)     point group:


     Atomic displacements:
     There are    6 irreducible representations

     Representation     1      1 modes -  To be done

     Representation     2      1 modes -  To be done

     Representation     3      1 modes -  To be done

     Representation     4      1 modes -  To be done

     Representation     5      1 modes -  To be done

     Representation     6      1 modes -  To be done



     Alpha used in Ewald sum =   1.3000
     PHONON       :   5m 9.83s CPU   5m18.19s WALL



     Representation #   1 mode #   1

     Self-consistent Calculation

      iter #   1 total cpu time :   320.1 secs   av.it.:   6.0
      thresh= 1.000E-02 alpha_mix =  0.700 |ddv_scf|^2 =  2.237E-04

      iter #   2 total cpu time :   321.8 secs   av.it.:   8.8
      thresh= 1.496E-03 alpha_mix =  0.700 |ddv_scf|^2 =  2.293E-03

      iter #   3 total cpu time :   323.1 secs   av.it.:   7.3
      thresh= 4.789E-03 alpha_mix =  0.700 |ddv_scf|^2 =  2.297E-07

      iter #   4 total cpu time :   325.4 secs   av.it.:   9.3
      thresh= 4.793E-05 alpha_mix =  0.700 |ddv_scf|^2 =  7.498E-09

      iter #   5 total cpu time :   327.0 secs   av.it.:   9.1
      thresh= 8.659E-06 alpha_mix =  0.700 |ddv_scf|^2 =  7.482E-11

      iter #   6 total cpu time :   328.6 secs   av.it.:   9.5
      thresh= 8.650E-07 alpha_mix =  0.700 |ddv_scf|^2 =  1.353E-11

      iter #   7 total cpu time :   330.4 secs   av.it.:   9.0
      thresh= 3.678E-07 alpha_mix =  0.700 |ddv_scf|^2 =  6.341E-11

      iter #   8 total cpu time :   331.8 secs   av.it.:   7.6
      thresh= 7.963E-07 alpha_mix =  0.700 |ddv_scf|^2 =  2.105E-12

      iter #   9 total cpu time :   333.3 secs   av.it.:   8.5
      thresh= 1.451E-07 alpha_mix =  0.700 |ddv_scf|^2 =  5.063E-12

      iter #  10 total cpu time :   334.7 secs   av.it.:   7.9
      thresh= 2.250E-07 alpha_mix =  0.700 |ddv_scf|^2 =  4.335E-15

     End of self-consistent calculation

     Convergence has been achieved 


     Representation #   2 mode #   2

     Self-consistent Calculation

      iter #   1 total cpu time :   336.6 secs   av.it.:   5.9
      thresh= 1.000E-02 alpha_mix =  0.700 |ddv_scf|^2 =  1.515E-04

      iter #   2 total cpu time :   338.0 secs   av.it.:   8.9
      thresh= 1.231E-03 alpha_mix =  0.700 |ddv_scf|^2 =  1.548E-03

      iter #   3 total cpu time :   339.3 secs   av.it.:   7.3
      thresh= 3.934E-03 alpha_mix =  0.700 |ddv_scf|^2 =  6.221E-08

      iter #   4 total cpu time :   341.0 secs   av.it.:   9.7
      thresh= 2.494E-05 alpha_mix =  0.700 |ddv_scf|^2 =  3.297E-09

      iter #   5 total cpu time :   342.6 secs   av.it.:   9.4
      thresh= 5.742E-06 alpha_mix =  0.700 |ddv_scf|^2 =  1.215E-10

      iter #   6 total cpu time :   344.1 secs   av.it.:   9.4
      thresh= 1.102E-06 alpha_mix =  0.700 |ddv_scf|^2 =  7.886E-12

      iter #   7 total cpu time :   345.6 secs   av.it.:   9.4
      thresh= 2.808E-07 alpha_mix =  0.700 |ddv_scf|^2 =  3.396E-11

      iter #   8 total cpu time :   347.1 secs   av.it.:   7.6
      thresh= 5.827E-07 alpha_mix =  0.700 |ddv_scf|^2 =  6.961E-13

      iter #   9 total cpu time :   348.5 secs   av.it.:   9.0
      thresh= 8.343E-08 alpha_mix =  0.700 |ddv_scf|^2 =  1.531E-12

      iter #  10 total cpu time :   349.8 secs   av.it.:   7.8
      thresh= 1.237E-07 alpha_mix =  0.700 |ddv_scf|^2 =  6.343E-15

     End of self-consistent calculation

     Convergence has been achieved 


     Representation #   3 mode #   3

     Self-consistent Calculation

      iter #   1 total cpu time :   351.6 secs   av.it.:   5.7
      thresh= 1.000E-02 alpha_mix =  0.700 |ddv_scf|^2 =  1.003E-04

      iter #   2 total cpu time :   353.0 secs   av.it.:   8.9
      thresh= 1.001E-03 alpha_mix =  0.700 |ddv_scf|^2 =  1.014E-03

      iter #   3 total cpu time :   354.3 secs   av.it.:   7.3
      thresh= 3.184E-03 alpha_mix =  0.700 |ddv_scf|^2 =  2.350E-07

      iter #   4 total cpu time :   355.7 secs   av.it.:   9.2
      thresh= 4.848E-05 alpha_mix =  0.700 |ddv_scf|^2 =  3.135E-09

      iter #   5 total cpu time :   357.2 secs   av.it.:   9.2
      thresh= 5.599E-06 alpha_mix =  0.700 |ddv_scf|^2 =  5.901E-11

      iter #   6 total cpu time :   358.7 secs   av.it.:   9.5
      thresh= 7.682E-07 alpha_mix =  0.700 |ddv_scf|^2 =  8.355E-12

      iter #   7 total cpu time :   360.1 secs   av.it.:   9.2
      thresh= 2.890E-07 alpha_mix =  0.700 |ddv_scf|^2 =  3.879E-11

      iter #   8 total cpu time :   361.4 secs   av.it.:   7.6
      thresh= 6.228E-07 alpha_mix =  0.700 |ddv_scf|^2 =  2.884E-12

      iter #   9 total cpu time :   362.7 secs   av.it.:   8.4
      thresh= 1.698E-07 alpha_mix =  0.700 |ddv_scf|^2 =  5.668E-12

      iter #  10 total cpu time :   364.1 secs   av.it.:   7.9
      thresh= 2.381E-07 alpha_mix =  0.700 |ddv_scf|^2 =  1.193E-14

      iter #  11 total cpu time :   365.6 secs   av.it.:   9.5
      thresh= 1.092E-08 alpha_mix =  0.700 |ddv_scf|^2 =  3.248E-15

     End of self-consistent calculation

     Convergence has been achieved 


     Representation #   4 mode #   4

     Self-consistent Calculation

      iter #   1 total cpu time :   367.5 secs   av.it.:   5.5
      thresh= 1.000E-02 alpha_mix =  0.700 |ddv_scf|^2 =  2.814E-05

      iter #   2 total cpu time :   368.9 secs   av.it.:   9.0
      thresh= 5.305E-04 alpha_mix =  0.700 |ddv_scf|^2 =  2.683E-04

      iter #   3 total cpu time :   370.2 secs   av.it.:   7.3
      thresh= 1.638E-03 alpha_mix =  0.700 |ddv_scf|^2 =  1.597E-07

      iter #   4 total cpu time :   371.6 secs   av.it.:   9.1
      thresh= 3.996E-05 alpha_mix =  0.700 |ddv_scf|^2 =  2.484E-09

      iter #   5 total cpu time :   373.1 secs   av.it.:   9.2
      thresh= 4.984E-06 alpha_mix =  0.700 |ddv_scf|^2 =  9.402E-11

      iter #   6 total cpu time :   374.6 secs   av.it.:   9.4
      thresh= 9.696E-07 alpha_mix =  0.700 |ddv_scf|^2 =  8.015E-12

      iter #   7 total cpu time :   376.1 secs   av.it.:   9.3
      thresh= 2.831E-07 alpha_mix =  0.700 |ddv_scf|^2 =  2.737E-11

      iter #   8 total cpu time :   377.4 secs   av.it.:   7.7
      thresh= 5.231E-07 alpha_mix =  0.700 |ddv_scf|^2 =  2.855E-12

      iter #   9 total cpu time :   378.7 secs   av.it.:   8.4
      thresh= 1.690E-07 alpha_mix =  0.700 |ddv_scf|^2 =  2.318E-12

      iter #  10 total cpu time :   380.0 secs   av.it.:   8.0
      thresh= 1.522E-07 alpha_mix =  0.700 |ddv_scf|^2 =  2.903E-14

      iter #  11 total cpu time :   381.5 secs   av.it.:   9.2
      thresh= 1.704E-08 alpha_mix =  0.700 |ddv_scf|^2 =  6.868E-15

     End of self-consistent calculation

     Convergence has been achieved 


     Representation #   5 mode #   5

     Self-consistent Calculation

      iter #   1 total cpu time :   383.2 secs   av.it.:   5.2
      thresh= 1.000E-02 alpha_mix =  0.700 |ddv_scf|^2 =  9.287E-07

      iter #   2 total cpu time :   384.7 secs   av.it.:   9.6
      thresh= 9.637E-05 alpha_mix =  0.700 |ddv_scf|^2 =  1.295E-07

      iter #   3 total cpu time :   386.2 secs   av.it.:   9.1
      thresh= 3.599E-05 alpha_mix =  0.700 |ddv_scf|^2 =  1.930E-10

      iter #   4 total cpu time :   387.6 secs   av.it.:   9.1
      thresh= 1.389E-06 alpha_mix =  0.700 |ddv_scf|^2 =  1.176E-11

      iter #   5 total cpu time :   389.1 secs   av.it.:   9.0
      thresh= 3.429E-07 alpha_mix =  0.700 |ddv_scf|^2 =  1.316E-14

      iter #   6 total cpu time :   390.6 secs   av.it.:   9.6
      thresh= 1.147E-08 alpha_mix =  0.700 |ddv_scf|^2 =  1.128E-16

     End of self-consistent calculation

     Convergence has been achieved 


     Representation #   6 mode #   6

     Self-consistent Calculation

      iter #   1 total cpu time :   392.3 secs   av.it.:   5.2
      thresh= 1.000E-02 alpha_mix =  0.700 |ddv_scf|^2 =  9.287E-07

      iter #   2 total cpu time :   393.9 secs   av.it.:   9.6
      thresh= 9.637E-05 alpha_mix =  0.700 |ddv_scf|^2 =  1.295E-07

      iter #   3 total cpu time :   395.3 secs   av.it.:   9.1
      thresh= 3.599E-05 alpha_mix =  0.700 |ddv_scf|^2 =  1.930E-10

      iter #   4 total cpu time :   396.7 secs   av.it.:   9.1
      thresh= 1.389E-06 alpha_mix =  0.700 |ddv_scf|^2 =  1.176E-11

      iter #   5 total cpu time :   398.2 secs   av.it.:   9.0
      thresh= 3.429E-07 alpha_mix =  0.700 |ddv_scf|^2 =  1.316E-14

      iter #   6 total cpu time :   399.7 secs   av.it.:   9.6
      thresh= 1.147E-08 alpha_mix =  0.700 |ddv_scf|^2 =  1.128E-16

     End of self-consistent calculation

     Convergence has been achieved 

     Number of q in the star =   24
     List of q in the star:
          1  -0.166666667   0.500000000  -0.166666667
          2   0.166666667   0.500000000   0.166666667
          3  -0.166666667   0.500000000   0.166666667
          4   0.166666667   0.500000000  -0.166666667
          5   0.500000000  -0.166666667   0.166666667
          6   0.166666667  -0.166666667   0.500000000
          7  -0.166666667  -0.500000000  -0.166666667
          8   0.166666667  -0.500000000  -0.166666667
          9  -0.166666667  -0.500000000   0.166666667
         10   0.500000000  -0.166666667  -0.166666667
         11  -0.500000000  -0.166666667   0.166666667
         12   0.500000000   0.166666667   0.166666667
         13  -0.166666667   0.166666667  -0.500000000
         14  -0.166666667  -0.166666667   0.500000000
         15   0.166666667   0.166666667   0.500000000
         16   0.166666667  -0.166666667  -0.500000000
         17  -0.500000000   0.166666667  -0.166666667
         18  -0.500000000  -0.166666667  -0.166666667
         19   0.166666667  -0.500000000   0.166666667
         20   0.500000000   0.166666667  -0.166666667
         21   0.166666667   0.166666667  -0.500000000
         22  -0.166666667  -0.166666667  -0.500000000
         23  -0.500000000   0.166666667   0.166666667
         24  -0.166666667   0.166666667   0.500000000

     Diagonalizing the dynamical matrix

     q = (   -0.166666667   0.500000000  -0.166666667 ) 

 **************************************************************************
     freq (    1) =       3.637610 [THz] =     121.337611 [cm-1]
     freq (    2) =       4.545693 [THz] =     151.628003 [cm-1]
     freq (    3) =       7.474605 [THz] =     249.325969 [cm-1]
     freq (    4) =      13.819920 [THz] =     460.982905 [cm-1]
     freq (    5) =      14.248393 [THz] =     475.275218 [cm-1]
     freq (    6) =      14.583651 [THz] =     486.458246 [cm-1]
 **************************************************************************

     Mode symmetry, C_s (m)     point group:

     freq (   1-   1) =        121.3  [cm-1]   --> A''                
     freq (   2-   2) =        151.6  [cm-1]   --> A'                 
     freq (   3-   3) =        249.3  [cm-1]   --> A'                 
     freq (   4-   4) =        461.0  [cm-1]   --> A'                 
     freq (   5-   5) =        475.3  [cm-1]   --> A''                
     freq (   6-   6) =        486.5  [cm-1]   --> A'                 

     Number of q in the star =   24
     List of q in the star:
          1  -0.166666667   0.500000000  -0.166666667
          2   0.166666667   0.500000000   0.166666667
          3  -0.166666667   0.500000000   0.166666667
          4   0.166666667   0.500000000  -0.166666667
          5   0.500000000  -0.166666667   0.166666667
          6   0.166666667  -0.166666667   0.500000000
          7  -0.166666667  -0.500000000  -0.166666667
          8   0.166666667  -0.500000000  -0.166666667
          9  -0.166666667  -0.500000000   0.166666667
         10   0.500000000  -0.166666667  -0.166666667
         11  -0.500000000  -0.166666667   0.166666667
         12   0.500000000   0.166666667   0.166666667
         13  -0.166666667   0.166666667  -0.500000000
         14  -0.166666667  -0.166666667   0.500000000
         15   0.166666667   0.166666667   0.500000000
         16   0.166666667  -0.166666667  -0.500000000
         17  -0.500000000   0.166666667  -0.166666667
         18  -0.500000000  -0.166666667  -0.166666667
         19   0.166666667  -0.500000000   0.166666667
         20   0.500000000   0.166666667  -0.166666667
         21   0.166666667   0.166666667  -0.500000000
         22  -0.166666667  -0.166666667  -0.500000000
         23  -0.500000000   0.166666667   0.166666667
         24  -0.166666667   0.166666667   0.500000000

     Calculation of q =    0.6666667  -0.3333333   0.6666667
     Message from routine kpoint_grid:
     ATTENTION: skip check of k-points equivalence

     G-vector sticks info
     --------------------
     sticks:   dense  smooth     PW     G-vecs:    dense   smooth      PW
     Sum         433     433    163                 5961     5961    1459


     Title: 
     phonons of Si                                                              


     bravais-lattice index     =            2
     lattice parameter (alat)  =      10.2000  a.u.
     unit-cell volume          =     265.3020 (a.u.)^3
     number of atoms/cell      =            2
     number of atomic types    =            1
     number of electrons       =         8.00
     number of Kohn-Sham states=           12
     kinetic-energy cutoff     =      30.0000  Ry
     charge density cutoff     =     120.0000  Ry
     Exchange-correlation= PZ
                           (   1   1   0   0   0   0   0)

     celldm(1)=  10.200000  celldm(2)=   0.000000  celldm(3)=   0.000000
     celldm(4)=   0.000000  celldm(5)=   0.000000  celldm(6)=   0.000000

     crystal axes: (cart. coord. in units of alat)
               a(1) = (  -0.500000   0.000000   0.500000 )  
               a(2) = (   0.000000   0.500000   0.500000 )  
               a(3) = (  -0.500000   0.500000   0.000000 )  

     reciprocal axes: (cart. coord. in units 2 pi/alat)
               b(1) = ( -1.000000 -1.000000  1.000000 )  
               b(2) = (  1.000000  1.000000  1.000000 )  
               b(3) = ( -1.000000  1.000000 -1.000000 )  


     PseudoPot. # 1 for Si read from file:
     ../../pseudoPotentials/Si.pz-vbc.UPF
     MD5 check sum: 9f25e6ff280f3123e9b3a84715b2e9c9
     Pseudo is Norm-conserving, Zval =  4.0
     Generated by new atomic code, or converted to UPF format
     Using radial grid of  431 points,  2 beta functions with: 
                l(1) =   0
                l(2) =   1

     atomic species   valence    mass     pseudopotential
        Si             4.00    28.08600     Si( 1.00)

     48 Sym. Ops., with inversion, found



   Cartesian axes

     site n.     atom                  positions (alat units)
         1           Si  tau(   1) = (   0.0000000   0.0000000   0.0000000  )
         2           Si  tau(   2) = (   0.2500000   0.2500000   0.2500000  )

     number of k points=   432

     Number of k-points >= 100: set verbosity='high' to print them.

     Dense  grid:     5961 G-vectors     FFT dimensions: (  32,  32,  32)

     Estimated max dynamical RAM per process >       4.42 MB

     Estimated total dynamical RAM >      17.69 MB

     The potential is recalculated from file :
     ./out/_ph0/silicon.q_7/silicon.save/charge-density

     Starting wfcs are    8 atomic +    4 random wfcs

     Band Structure Calculation
     Davidson diagonalization with overlap

     ethr =  1.25E-10,  avg # of iterations = 20.0

     total cpu time spent up to now is       83.1 secs

     End of band structure calculation

     Number of k-points >= 100: set verbosity='high' to print the bands.

     highest occupied, lowest unoccupied level (ev):     6.2376    6.8644

     Writing output data file ./out/_ph0/silicon.q_7/silicon.save/

     phonons of Si                                                              

     bravais-lattice index     =            2
     lattice parameter (alat)  =      10.2000  a.u.
     unit-cell volume          =     265.3020 (a.u.)^3
     number of atoms/cell      =            2
     number of atomic types    =            1
     kinetic-energy cut-off    =      30.0000  Ry
     charge density cut-off    =     120.0000  Ry
     convergence threshold     =      1.0E-14
     beta                      =       0.7000
     number of iterations used =            4
     Exchange-correlation= PZ
                           (   1   1   0   0   0   0   0)


     celldm(1)=   10.20000  celldm(2)=    0.00000  celldm(3)=    0.00000
     celldm(4)=    0.00000  celldm(5)=    0.00000  celldm(6)=    0.00000

     crystal axes: (cart. coord. in units of alat)
               a(1) = ( -0.5000  0.0000  0.5000 )  
               a(2) = (  0.0000  0.5000  0.5000 )  
               a(3) = ( -0.5000  0.5000  0.0000 )  

     reciprocal axes: (cart. coord. in units 2 pi/alat)
               b(1) = ( -1.0000 -1.0000  1.0000 )  
               b(2) = (  1.0000  1.0000  1.0000 )  
               b(3) = ( -1.0000  1.0000 -1.0000 )  


     Atoms inside the unit cell: 

     Cartesian axes

     site n.  atom      mass           positions (alat units)
        1     Si  28.0860   tau(    1) = (    0.00000    0.00000    0.00000  )
        2     Si  28.0860   tau(    2) = (    0.25000    0.25000    0.25000  )

     Computing dynamical matrix for 
                    q = (   0.6666667  -0.3333333   0.6666667 )

      2 Sym.Ops. (no q -> -q+G )


     G cutoff =  316.2437  (   5961 G-vectors)     FFT grid: ( 32, 32, 32)
     number of k points=   432

     PseudoPot. # 1 for Si read from file:
     ../../pseudoPotentials/Si.pz-vbc.UPF
     MD5 check sum: 9f25e6ff280f3123e9b3a84715b2e9c9
     Pseudo is Norm-conserving, Zval =  4.0
     Generated by new atomic code, or converted to UPF format
     Using radial grid of  431 points,  2 beta functions with: 
                l(1) =   0
                l(2) =   1

     Mode symmetry, C_s (m)     point group:


     Atomic displacements:
     There are    6 irreducible representations

     Representation     1      1 modes -  To be done

[...]
      thresh= 1.333E-04 alpha_mix =  0.700 |ddv_scf|^2 =  5.748E-07

      iter #   3 total cpu time :  1253.2 secs   av.it.:   9.2
      thresh= 7.582E-05 alpha_mix =  0.700 |ddv_scf|^2 =  1.087E-08

      iter #   4 total cpu time :  1254.7 secs   av.it.:   9.0
      thresh= 1.043E-05 alpha_mix =  0.700 |ddv_scf|^2 =  1.064E-09

      iter #   5 total cpu time :  1256.2 secs   av.it.:   8.9
      thresh= 3.261E-06 alpha_mix =  0.700 |ddv_scf|^2 =  1.295E-11

      iter #   6 total cpu time :  1257.6 secs   av.it.:   9.2
      thresh= 3.598E-07 alpha_mix =  0.700 |ddv_scf|^2 =  7.998E-15

     End of self-consistent calculation

     Convergence has been achieved 

     Number of q in the star =   24
     List of q in the star:
          1   0.500000000  -0.166666667   0.833333333
          2   0.833333333   0.166666667   0.500000000
          3   0.500000000   0.166666667   0.833333333
          4  -0.833333333  -0.166666667   0.500000000
          5  -0.833333333  -0.166666667  -0.500000000
          6  -0.500000000  -0.166666667  -0.833333333
          7   0.833333333  -0.166666667   0.500000000
          8  -0.500000000  -0.166666667   0.833333333
          9  -0.833333333   0.166666667   0.500000000
         10   0.833333333   0.166666667  -0.500000000
         11   0.833333333  -0.166666667  -0.500000000
         12   0.500000000   0.166666667  -0.833333333
         13  -0.500000000   0.166666667   0.833333333
         14  -0.500000000   0.166666667  -0.833333333
         15  -0.833333333   0.166666667  -0.500000000
         16   0.833333333  -0.500000000   0.166666667
         17   0.833333333   0.500000000  -0.166666667
         18  -0.833333333  -0.500000000  -0.166666667
         19  -0.833333333   0.500000000   0.166666667
         20   0.166666667  -0.500000000   0.833333333
         21  -0.166666667   0.500000000   0.833333333
         22   0.166666667   0.500000000  -0.833333333
         23  -0.166666667  -0.500000000  -0.833333333
         24  -0.500000000   0.833333333   0.166666667

     Diagonalizing the dynamical matrix

     q = (    0.500000000  -0.166666667   0.833333333 ) 

 **************************************************************************
     freq (    1) =       5.158354 [THz] =     172.064171 [cm-1]
     freq (    2) =       6.215510 [THz] =     207.327106 [cm-1]
     freq (    3) =       9.823113 [THz] =     327.663786 [cm-1]
     freq (    4) =      11.380610 [THz] =     379.616295 [cm-1]
     freq (    5) =      13.917984 [THz] =     464.253987 [cm-1]
     freq (    6) =      14.156260 [THz] =     472.201994 [cm-1]
 **************************************************************************

     Number of q in the star =   24
     List of q in the star:
          1   0.500000000  -0.166666667   0.833333333
          2   0.833333333   0.166666667   0.500000000
          3   0.500000000   0.166666667   0.833333333
          4  -0.833333333  -0.166666667   0.500000000
          5  -0.833333333  -0.166666667  -0.500000000
          6  -0.500000000  -0.166666667  -0.833333333
          7   0.833333333  -0.166666667   0.500000000
          8  -0.500000000  -0.166666667   0.833333333
          9  -0.833333333   0.166666667   0.500000000
         10   0.833333333   0.166666667  -0.500000000
         11   0.833333333  -0.166666667  -0.500000000
         12   0.500000000   0.166666667  -0.833333333
         13  -0.500000000   0.166666667   0.833333333
         14  -0.500000000   0.166666667  -0.833333333
         15  -0.833333333   0.166666667  -0.500000000
         16   0.833333333  -0.500000000   0.166666667
         17   0.833333333   0.500000000  -0.166666667
         18  -0.833333333  -0.500000000  -0.166666667
         19  -0.833333333   0.500000000   0.166666667
         20   0.166666667  -0.500000000   0.833333333
         21  -0.166666667   0.500000000   0.833333333
         22   0.166666667   0.500000000  -0.833333333
         23  -0.166666667  -0.500000000  -0.833333333
         24  -0.500000000   0.833333333   0.166666667

     Calculation of q =   -0.3333333  -1.0000000   0.0000000
     Message from routine kpoint_grid:
     ATTENTION: skip check of k-points equivalence

     G-vector sticks info
     --------------------
     sticks:   dense  smooth     PW     G-vecs:    dense   smooth      PW
     Sum         433     433    169                 5961     5961    1471


     Title: 
     phonons of Si                                                              


     bravais-lattice index     =            2
     lattice parameter (alat)  =      10.2000  a.u.
     unit-cell volume          =     265.3020 (a.u.)^3
     number of atoms/cell      =            2
     number of atomic types    =            1
     number of electrons       =         8.00
     number of Kohn-Sham states=           12
     kinetic-energy cutoff     =      30.0000  Ry
     charge density cutoff     =     120.0000  Ry
     Exchange-correlation= PZ
                           (   1   1   0   0   0   0   0)

     celldm(1)=  10.200000  celldm(2)=   0.000000  celldm(3)=   0.000000
     celldm(4)=   0.000000  celldm(5)=   0.000000  celldm(6)=   0.000000

     crystal axes: (cart. coord. in units of alat)
               a(1) = (  -0.500000   0.000000   0.500000 )  
               a(2) = (   0.000000   0.500000   0.500000 )  
               a(3) = (  -0.500000   0.500000   0.000000 )  

     reciprocal axes: (cart. coord. in units 2 pi/alat)
               b(1) = ( -1.000000 -1.000000  1.000000 )  
               b(2) = (  1.000000  1.000000  1.000000 )  
               b(3) = ( -1.000000  1.000000 -1.000000 )  


     PseudoPot. # 1 for Si read from file:
     ../../pseudoPotentials/Si.pz-vbc.UPF
     MD5 check sum: 9f25e6ff280f3123e9b3a84715b2e9c9
     Pseudo is Norm-conserving, Zval =  4.0
     Generated by new atomic code, or converted to UPF format
     Using radial grid of  431 points,  2 beta functions with: 
                l(1) =   0
                l(2) =   1

     atomic species   valence    mass     pseudopotential
        Si             4.00    28.08600     Si( 1.00)

     48 Sym. Ops., with inversion, found



   Cartesian axes

     site n.     atom                  positions (alat units)
         1           Si  tau(   1) = (   0.0000000   0.0000000   0.0000000  )
         2           Si  tau(   2) = (   0.2500000   0.2500000   0.2500000  )

     number of k points=   432

     Number of k-points >= 100: set verbosity='high' to print them.

     Dense  grid:     5961 G-vectors     FFT dimensions: (  32,  32,  32)

     Estimated max dynamical RAM per process >       4.42 MB

     Estimated total dynamical RAM >      17.69 MB

     The potential is recalculated from file :
     ./out/_ph0/silicon.q_16/silicon.save/charge-density

     Starting wfcs are    8 atomic +    4 random wfcs

     Band Structure Calculation
     Davidson diagonalization with overlap

     ethr =  1.25E-10,  avg # of iterations = 20.0

     total cpu time spent up to now is      222.3 secs

     End of band structure calculation

     Number of k-points >= 100: set verbosity='high' to print the bands.

     highest occupied, lowest unoccupied level (ev):     6.2376    6.8644

     Writing output data file ./out/_ph0/silicon.q_16/silicon.save/

     phonons of Si                                                              

     bravais-lattice index     =            2
     lattice parameter (alat)  =      10.2000  a.u.
     unit-cell volume          =     265.3020 (a.u.)^3
     number of atoms/cell      =            2
     number of atomic types    =            1
     kinetic-energy cut-off    =      30.0000  Ry
     charge density cut-off    =     120.0000  Ry
     convergence threshold     =      1.0E-14
     beta                      =       0.7000
     number of iterations used =            4
     Exchange-correlation= PZ
                           (   1   1   0   0   0   0   0)


     celldm(1)=   10.20000  celldm(2)=    0.00000  celldm(3)=    0.00000
     celldm(4)=    0.00000  celldm(5)=    0.00000  celldm(6)=    0.00000

     crystal axes: (cart. coord. in units of alat)
               a(1) = ( -0.5000  0.0000  0.5000 )  
               a(2) = (  0.0000  0.5000  0.5000 )  
               a(3) = ( -0.5000  0.5000  0.0000 )  

     reciprocal axes: (cart. coord. in units 2 pi/alat)
               b(1) = ( -1.0000 -1.0000  1.0000 )  
               b(2) = (  1.0000  1.0000  1.0000 )  
               b(3) = ( -1.0000  1.0000 -1.0000 )  


     Atoms inside the unit cell: 

     Cartesian axes

     site n.  atom      mass           positions (alat units)
        1     Si  28.0860   tau(    1) = (    0.00000    0.00000    0.00000  )
        2     Si  28.0860   tau(    2) = (    0.25000    0.25000    0.25000  )

     Computing dynamical matrix for 
                    q = (  -0.3333333  -1.0000000   0.0000000 )

      4 Sym.Ops. (no q -> -q+G )


     G cutoff =  316.2437  (   5961 G-vectors)     FFT grid: ( 32, 32, 32)
     number of k points=   432

     PseudoPot. # 1 for Si read from file:
     ../../pseudoPotentials/Si.pz-vbc.UPF
     MD5 check sum: 9f25e6ff280f3123e9b3a84715b2e9c9
     Pseudo is Norm-conserving, Zval =  4.0
     Generated by new atomic code, or converted to UPF format
     Using radial grid of  431 points,  2 beta functions with: 
                l(1) =   0
                l(2) =   1


     Atomic displacements:
     There are    3 irreducible representations

     Representation     1      2 modes -  To be done

     Representation     2      2 modes -  To be done

     Representation     3      2 modes -  To be done



     Alpha used in Ewald sum =   1.3000
     PHONON       :  20m48.76s CPU  21m21.53s WALL



     Representation #   1 modes #   1   2

     Self-consistent Calculation

      iter #   1 total cpu time :  1284.2 secs   av.it.:   5.6
      thresh= 1.000E-02 alpha_mix =  0.700 |ddv_scf|^2 =  1.807E-06

      iter #   2 total cpu time :  1287.6 secs   av.it.:  10.4
      thresh= 1.344E-04 alpha_mix =  0.700 |ddv_scf|^2 =  2.226E-06

      iter #   3 total cpu time :  1290.8 secs   av.it.:   9.7
      thresh= 1.492E-04 alpha_mix =  0.700 |ddv_scf|^2 =  6.490E-09

      iter #   4 total cpu time :  1294.0 secs   av.it.:  10.0
      thresh= 8.056E-06 alpha_mix =  0.700 |ddv_scf|^2 =  1.418E-10

      iter #   5 total cpu time :  1297.3 secs   av.it.:  10.0
      thresh= 1.191E-06 alpha_mix =  0.700 |ddv_scf|^2 =  4.030E-12

      iter #   6 total cpu time :  1300.6 secs   av.it.:  10.1
      thresh= 2.007E-07 alpha_mix =  0.700 |ddv_scf|^2 =  1.544E-14

      iter #   7 total cpu time :  1303.9 secs   av.it.:  10.1
      thresh= 1.242E-08 alpha_mix =  0.700 |ddv_scf|^2 =  2.660E-16

     End of self-consistent calculation

     Convergence has been achieved 


     Representation #   2 modes #   3   4

     Self-consistent Calculation

      iter #   1 total cpu time :  1307.6 secs   av.it.:   5.7
      thresh= 1.000E-02 alpha_mix =  0.700 |ddv_scf|^2 =  1.609E-06

      iter #   2 total cpu time :  1311.0 secs   av.it.:  10.4
      thresh= 1.268E-04 alpha_mix =  0.700 |ddv_scf|^2 =  1.165E-06

      iter #   3 total cpu time :  1314.3 secs   av.it.:   9.9
      thresh= 1.079E-04 alpha_mix =  0.700 |ddv_scf|^2 =  1.573E-08

      iter #   4 total cpu time :  1317.5 secs   av.it.:   9.9
      thresh= 1.254E-05 alpha_mix =  0.700 |ddv_scf|^2 =  4.779E-11

      iter #   5 total cpu time :  1320.8 secs   av.it.:  10.2
      thresh= 6.913E-07 alpha_mix =  0.700 |ddv_scf|^2 =  3.204E-12

      iter #   6 total cpu time :  1324.1 secs   av.it.:  10.2
      thresh= 1.790E-07 alpha_mix =  0.700 |ddv_scf|^2 =  1.154E-14

      iter #   7 total cpu time :  1327.5 secs   av.it.:  10.3
      thresh= 1.074E-08 alpha_mix =  0.700 |ddv_scf|^2 =  2.007E-16

     End of self-consistent calculation

     Convergence has been achieved 


     Representation #   3 modes #   5   6

     Self-consistent Calculation

      iter #   1 total cpu time :  1331.2 secs   av.it.:   5.6
      thresh= 1.000E-02 alpha_mix =  0.700 |ddv_scf|^2 =  1.985E-06

      iter #   2 total cpu time :  1334.6 secs   av.it.:  10.3
      thresh= 1.409E-04 alpha_mix =  0.700 |ddv_scf|^2 =  2.250E-06

      iter #   3 total cpu time :  1337.8 secs   av.it.:   9.7
      thresh= 1.500E-04 alpha_mix =  0.700 |ddv_scf|^2 =  1.185E-08

      iter #   4 total cpu time :  1341.0 secs   av.it.:  10.0
      thresh= 1.089E-05 alpha_mix =  0.700 |ddv_scf|^2 =  4.450E-11

      iter #   5 total cpu time :  1344.3 secs   av.it.:  10.1
      thresh= 6.671E-07 alpha_mix =  0.700 |ddv_scf|^2 =  2.964E-12

      iter #   6 total cpu time :  1347.6 secs   av.it.:  10.2
      thresh= 1.722E-07 alpha_mix =  0.700 |ddv_scf|^2 =  2.564E-14

      iter #   7 total cpu time :  1351.2 secs   av.it.:  10.3
      thresh= 1.601E-08 alpha_mix =  0.700 |ddv_scf|^2 =  2.225E-16

     End of self-consistent calculation

     Convergence has been achieved 

     Number of q in the star =   12
     List of q in the star:
          1  -0.333333333  -1.000000000   0.000000000
          2   0.000000000  -1.000000000  -0.333333333
          3   0.000000000  -1.000000000   0.333333333
          4   0.333333333  -1.000000000   0.000000000
          5  -1.000000000   0.000000000  -0.333333333
          6   1.000000000   0.000000000   0.333333333
          7   0.000000000   0.333333333   1.000000000
          8   0.000000000  -0.333333333  -1.000000000
          9  -1.000000000  -0.333333333   0.000000000
         10   1.000000000   0.333333333   0.000000000
         11  -0.333333333   0.000000000   1.000000000
         12   0.333333333   0.000000000   1.000000000

     Diagonalizing the dynamical matrix

     q = (   -0.333333333  -1.000000000   0.000000000 ) 

 **************************************************************************
     freq (    1) =       5.629869 [THz] =     187.792217 [cm-1]
     freq (    2) =       5.629869 [THz] =     187.792217 [cm-1]
     freq (    3) =      10.940479 [THz] =     364.935092 [cm-1]
     freq (    4) =      10.940479 [THz] =     364.935092 [cm-1]
     freq (    5) =      13.865989 [THz] =     462.519609 [cm-1]
     freq (    6) =      13.865989 [THz] =     462.519609 [cm-1]
 **************************************************************************

     Number of q in the star =   12
     List of q in the star:
          1  -0.333333333  -1.000000000   0.000000000
          2   0.000000000  -1.000000000  -0.333333333
          3   0.000000000  -1.000000000   0.333333333
          4   0.333333333  -1.000000000   0.000000000
          5  -1.000000000   0.000000000  -0.333333333
          6   1.000000000   0.000000000   0.333333333
          7   0.000000000   0.333333333   1.000000000
          8   0.000000000  -0.333333333  -1.000000000
          9  -1.000000000  -0.333333333   0.000000000
         10   1.000000000   0.333333333   0.000000000
         11  -0.333333333   0.000000000   1.000000000
         12   0.333333333   0.000000000   1.000000000

     init_run     :      0.55s CPU      0.56s WALL (      15 calls)
     electrons    :    217.58s CPU    220.92s WALL (      15 calls)

     Called by init_run:
     wfcinit      :      0.00s CPU      0.00s WALL (      15 calls)
     potinit      :      0.05s CPU      0.06s WALL (      15 calls)
     hinit0       :      0.27s CPU      0.27s WALL (      15 calls)

     Called by electrons:
     c_bands      :    217.58s CPU    220.91s WALL (      15 calls)
     v_of_rho     :      0.04s CPU      0.04s WALL (      16 calls)

     Called by c_bands:
     init_us_2    :      6.77s CPU      7.06s WALL (   40700 calls)
     cegterg      :    176.38s CPU    178.85s WALL (    2164 calls)

     Called by *egterg:
     cdiaghg      :     17.15s CPU     17.41s WALL (   34033 calls)
     h_psi        :    839.56s CPU    856.58s WALL (  378691 calls)
     g_psi        :      1.05s CPU      1.07s WALL (   32413 calls)

     Called by h_psi:
     h_psi:calbec :     13.71s CPU     13.96s WALL (  378691 calls)
     vloc_psi     :    809.93s CPU    826.44s WALL (  378691 calls)
     add_vuspsi   :     10.64s CPU     10.94s WALL (  378691 calls)

     General routines
     calbec       :     22.86s CPU     23.48s WALL (  748873 calls)
     fft          :      0.50s CPU      0.51s WALL (    2080 calls)
     ffts         :      1.20s CPU      1.26s WALL (    5364 calls)
     fftw         :    826.73s CPU    847.18s WALL ( 3773192 calls)
     davcio       :      9.22s CPU     10.38s WALL (  182712 calls)

     Parallel routines

     PHONON       :  22m 1.87s CPU  22m36.54s WALL

     INITIALIZATION: 
     phq_setup    :      0.10s CPU      0.10s WALL (      16 calls)
     phq_init     :      1.63s CPU      1.67s WALL (      16 calls)

     phq_init     :      1.63s CPU      1.67s WALL (      16 calls)
     init_vloc    :      0.01s CPU      0.01s WALL (      16 calls)
     init_us_1    :      0.13s CPU      0.13s WALL (      16 calls)

     DYNAMICAL MATRIX:
     dynmat0      :      0.80s CPU      0.82s WALL (      16 calls)
     phqscf       :   1018.93s CPU   1047.00s WALL (      16 calls)
     dynmatrix    :      0.04s CPU      0.04s WALL (      16 calls)

     phqscf       :   1018.93s CPU   1047.00s WALL (      16 calls)
     solve_linter :   1016.50s CPU   1044.28s WALL (      76 calls)
     drhodv       :      2.26s CPU      2.49s WALL (      76 calls)

     dynmat0      :      0.80s CPU      0.82s WALL (      16 calls)
     dynmat_us    :      0.74s CPU      0.76s WALL (      16 calls)
     d2ionq       :      0.04s CPU      0.04s WALL (      16 calls)

     dynmat_us    :      0.74s CPU      0.76s WALL (      16 calls)

     phqscf       :   1018.93s CPU   1047.00s WALL (      16 calls)
     solve_linter :   1016.50s CPU   1044.28s WALL (      76 calls)

     solve_linter :   1016.50s CPU   1044.28s WALL (      76 calls)
     dvqpsi_us    :     35.98s CPU     36.87s WALL (    4908 calls)
     ortho        :      1.69s CPU      1.78s WALL (   34200 calls)
     cgsolve      :    733.84s CPU    749.64s WALL (   34200 calls)
     incdrhoscf   :     86.20s CPU     89.50s WALL (   34188 calls)
     vpsifft      :     66.62s CPU     70.30s WALL (   29244 calls)
     dv_of_drho   :      0.66s CPU      0.67s WALL (     672 calls)
     mix_pot      :      1.40s CPU      2.36s WALL (     558 calls)
     psymdvscf    :      5.71s CPU      5.80s WALL (     553 calls)

     dvqpsi_us    :     35.98s CPU     36.87s WALL (    4908 calls)
     dvqpsi_us_on :      1.21s CPU      1.23s WALL (    4908 calls)

     cgsolve      :    733.84s CPU    749.64s WALL (   34200 calls)
     ch_psi       :    722.73s CPU    738.17s WALL (  342494 calls)

     ch_psi       :    722.73s CPU    738.17s WALL (  342494 calls)
     h_psi        :    839.56s CPU    856.58s WALL (  378691 calls)
     last         :     27.30s CPU     27.87s WALL (  342494 calls)

     h_psi        :    839.56s CPU    856.58s WALL (  378691 calls)
     add_vuspsi   :     10.64s CPU     10.94s WALL (  378691 calls)

     incdrhoscf   :     86.20s CPU     89.50s WALL (   34188 calls)


      Electron-phonon coupling
     elphel       :     46.22s CPU     47.70s WALL (      76 calls)

      General routines
     calbec       :     22.86s CPU     23.48s WALL (  748873 calls)
     fft          :      0.50s CPU      0.51s WALL (    2080 calls)
     ffts         :      1.20s CPU      1.26s WALL (    5364 calls)
     fftw         :    826.73s CPU    847.18s WALL ( 3773192 calls)
     davcio       :      9.22s CPU     10.38s WALL (  182712 calls)
     write_rec    :      0.68s CPU      1.10s WALL (     634 calls)


     PHONON       :  22m 1.87s CPU  22m36.54s WALL


   This run was terminated on:  16:10: 7   2Nov2020            

=------------------------------------------------------------------------------=
   JOB DONE.
=------------------------------------------------------------------------------=
