 written on  2Jun2021 at 12:57:20 
  -2.6988037638089994        0.0000000000000000        2.6988037638089994     
   0.0000000000000000        2.6988037638089994        2.6988037638089994     
  -2.6988037638089994        2.6988037638089994        0.0000000000000000     
           8
         279
    3    2    2    3    2    3    6    2    2    2    1    2    2    1    1
    2    2    1    1    1    2    2    1    1    1    1    2    6    2    2
    2    2    2    6    2    2    3    1    1    1    3    2    1    1    1
    1    2    3    1    1    1    1    1    3    1    1    1    1    1    1
    2    1    1    1    1    1    2    2    1    1    1    1    2    3    2
    3    2    1    2    2    1    1    1    1    2    2    1    1    1    1
    1    2    1    1    1    1    1    1    2    1    1    1    1    1    2
    1    1    1    1    1    1    2    1    1    1    2    2    2    3    2
    1    1    2    3    1    1    1    1    1    3    1    1    1    1    1
    1    2    1    1    1    1    1    2    1    1    1    1    1    1    3
    1    1    1    1    1    3    2    1    1    2    3    2    2    2    1
    1    1    2    1    1    1    1    1    1    2    1    1    1    1    1
    2    1    1    1    1    1    1    2    1    1    1    1    1    2    2
    1    1    1    1    2    2    1    2    3    2    3    2    1    1    1
    1    2    2    1    1    1    1    1    2    1    1    1    1    1    1
    3    1    1    1    1    1    3    2    1    1    1    1    2    3    1
    1    1    3    2    2    6    2    2    2    2    2    6    2    1    1
    1    1    2    2    1    1    1    2    2    1    1    2    2    1    2
    2    2    6    3    2    3    2    2    3

   -4    0    2
    1    1   -0.86671953E-03  0.60161372E-10
    2    1    0.47172264E-03 -0.10489438E-03
    3    1    0.19273071E-02 -0.30579924E-03
    4    1   -0.49674918E-02  0.14081672E-02
    5    1   -0.66413348E-03 -0.19171177E-03
    6    1    0.11048019E-02  0.38391264E-04
    7    1    0.32484218E-02 -0.44965985E-03
    8    1   -0.27723243E-02 -0.20500932E-03
    1    2    0.82018059E-03  0.18237919E-03
    2    2   -0.86617324E-03 -0.40340897E-10
    3    2   -0.21789532E-02 -0.13406525E-03
    4    2   -0.35750180E-02  0.20552031E-03
    5    2   -0.23212666E-02 -0.12676017E-02
    6    2   -0.15007535E-02 -0.38887017E-03
    7    2    0.10646171E-01  0.86696375E-03
    8    2   -0.59049985E-02 -0.17789827E-02
    1    3    0.15311685E-02  0.24294525E-03
    2    3   -0.35741992E-02  0.21991161E-03
    3    3   -0.86614970E-03 -0.46086156E-11
    4    3   -0.21676263E-02  0.25889658E-03
    5    3   -0.17481997E-03 -0.81956102E-04
    6    3    0.25878673E-02  0.50331056E-03
    7    3    0.84041736E-03  0.16646670E-04
    8    3   -0.64777408E-03 -0.15247118E-03
    1    4   -0.25364151E-02 -0.71901399E-03
    2    4   -0.21794192E-02 -0.12529032E-03
    3    4   -0.35556639E-02 -0.42468058E-03
    4    4   -0.86619183E-03 -0.66639895E-10
    5    4    0.84312306E-03  0.52537707E-03
    6    4   -0.79993161E-03 -0.25709141E-03
    7    4    0.75117259E-04  0.10484480E-04
    8    4   -0.12669864E-02 -0.46254886E-03
    1    5    0.71508141E-02 -0.20641868E-02
    2    5    0.31428429E-02 -0.17162502E-02
    3    5    0.76388523E-02 -0.35811184E-02
    4    5    0.87808950E-02 -0.54716547E-02
    5    5   -0.50742042E-02  0.27185305E-09
    6    5    0.60510910E-02 -0.15212054E-02
    7    5    0.71217356E-03 -0.31682102E-03
    8    5    0.25107110E-02 -0.52782351E-03
    1    6    0.11048081E-02 -0.38391437E-04
    2    6   -0.18890201E-02  0.48947659E-03
    3    6    0.50682276E-02 -0.98571150E-03
    4    6   -0.46007330E-03  0.14786382E-03
    5    6   -0.29317241E-02 -0.73701636E-03
    6    6   -0.86671970E-03  0.45645675E-10
    7    6    0.35285925E-02 -0.61401173E-03
    8    6   -0.28127697E-02 -0.10997593E-03
    1    7    0.32484170E-02  0.44965888E-03
    2    7   -0.17654882E-01  0.14377135E-02
    3    7    0.48335182E-03 -0.95739519E-05
    4    7   -0.91265487E-02  0.12738432E-02
    5    7    0.24035384E-02  0.10692493E-02
    6    7    0.21509367E-02  0.37428543E-03
    7    7   -0.86672088E-03  0.10156730E-10
    8    7   -0.27180159E-02 -0.58320163E-03
    1    8   -0.12365124E-02  0.91437959E-04
    2    8    0.79640529E-02 -0.23993101E-02
    3    8   -0.61853574E-02  0.14558898E-02
    4    8   -0.31972224E-02  0.11672355E-02
    5    8   -0.11484455E-02 -0.24143637E-03
    6    8   -0.13879675E-02  0.54267560E-04
    7    8   -0.12123093E-02  0.26012384E-03
    8    8   -0.50741475E-02 -0.15602795E-09

   -4    1    1
    1    1   -0.58833797E-02 -0.73199388E-10
    2    1    0.11422271E-01 -0.25399129E-02
    3    1    0.19272792E-02 -0.30579482E-03
    4    1    0.11258282E-01 -0.31914582E-02
    5    1    0.79912046E-02  0.23067772E-02
    6    1   -0.35324952E-02 -0.12275197E-03
    7    1    0.27536312E-02 -0.38116889E-03
    8    1    0.10318690E-01  0.76305154E-03
    1    2   -0.25153833E-02 -0.55933300E-03
    2    2   -0.58824215E-02 -0.67372122E-10
    3    2   -0.21788695E-02 -0.13405981E-03
    4    2   -0.11297293E-02  0.64945647E-04
    5    2   -0.24591017E-01 -0.13428711E-01
    6    2    0.52436897E-02  0.13587267E-02
    7    2   -0.30590989E-02 -0.24911606E-03
    8    2    0.15889372E-01  0.47869479E-02
    1    3   -0.21229586E-02 -0.33684270E-03
    2    3    0.39620753E-02 -0.24377631E-03
    3    3   -0.58824248E-02  0.24333639E-09
    4    3    0.35092916E-02 -0.41914197E-03
    5    3    0.12581219E-02  0.58981128E-03
    6    3   -0.18700417E-02 -0.36370116E-03
    7    3   -0.35721280E-02 -0.70754928E-04
    8    3    0.34777637E-02  0.81858534E-03
    1    4    0.60028300E-02  0.17016614E-02
    2    4   -0.10329085E-01 -0.59379633E-03
    3    4    0.35214886E-02  0.42059802E-03
    4    4    0.74723326E-03  0.20598193E-10
    5    4   -0.58481309E-02 -0.36441561E-02
    6    4    0.34019251E-02  0.10933511E-02
    7    4   -0.27159537E-02 -0.37908045E-03
    8    4    0.69914446E-02  0.25524226E-02
    1    5    0.74924220E-03 -0.21628004E-03
    2    5    0.97058032E-03 -0.53001619E-03
    3    5   -0.17063096E-02  0.79992364E-03
    4    5   -0.29995340E-02  0.18691049E-02
    5    5    0.74700597E-03  0.14151150E-09
    6    5    0.18476134E-02 -0.46447817E-03
    7    5    0.71254631E-03 -0.31698649E-03
    8    5   -0.21035207E-02  0.44221977E-03
    1    6   -0.35325003E-02  0.12275210E-03
    2    6    0.21969655E-01 -0.56927005E-02
    3    6    0.50682699E-02 -0.98571961E-03
    4    6    0.13936015E-01 -0.44789215E-02
    5    6    0.19215637E-01  0.48306864E-02
    6    6   -0.58833766E-02  0.19461164E-09
    7    6   -0.34943781E-02  0.60805854E-03
    8    6   -0.11310428E-02 -0.44222396E-04
    1    7    0.39320209E-02  0.54428626E-03
    2    7   -0.51461779E-02  0.41907528E-03
    3    7   -0.14635448E-01  0.28989265E-03
    4    7   -0.22477324E-01  0.31372843E-02
    5    7   -0.21148007E-02 -0.94080008E-03
    6    7   -0.34823022E-02 -0.60595692E-03
    7    7    0.74806877E-03  0.14098763E-09
    8    7   -0.38811706E-02 -0.83277838E-03
    1    8    0.11288209E-02 -0.83474547E-04
    2    8   -0.14830661E-01  0.44679955E-02
    3    8    0.38055688E-01 -0.89574308E-02
    4    8    0.13750634E-01 -0.50200545E-02
    5    8    0.30861405E-02  0.64879593E-03
    6    8   -0.64707068E-02  0.25299601E-03
    7    8    0.27522727E-02 -0.59055242E-03
    8    8    0.74806332E-03 -0.62435560E-10

   -4    1    2
    1    1    0.74806565E-03  0.22261622E-09
    2    1    0.33224431E-02 -0.73879450E-03
    3    1    0.63164416E-02 -0.10022095E-02
    4    1    0.11257808E-01 -0.31913243E-02
    5    1   -0.32703132E-02 -0.94402350E-03
    6    1   -0.18831945E-02 -0.65439650E-04
    7    1    0.39320217E-02 -0.54428652E-03
    8    1   -0.39587047E-02 -0.29274025E-03
    1    2    0.18596737E-02  0.41352618E-03
    2    2   -0.58824233E-02  0.24681261E-10
    3    2    0.35275588E-02  0.21704176E-03
    4    2    0.39630751E-02 -0.22782786E-03
    5    2    0.23033757E-03  0.12578369E-03
    6    2    0.20807813E-02  0.53916475E-03
    7    2    0.62178808E-02  0.50634852E-03
    8    2    0.71263691E-02  0.21469425E-02
    1    3    0.25339352E-02  0.40205141E-03
    2    3    0.35397638E-02 -0.21779221E-03
    3    3    0.74699622E-03 -0.36318101E-09
    4    3   -0.10273103E-01  0.12269957E-02
    5    3   -0.15824723E-02 -0.74186843E-03
    6    3   -0.61247046E-02 -0.11911836E-02
    7    3    0.19047269E-02  0.37728310E-04
    8    3   -0.60725474E-02 -0.14293372E-02
    1    4    0.60020166E-02  0.17014308E-02
    2    4   -0.21794387E-02 -0.12529113E-03
    3    4   -0.11235705E-02 -0.13419631E-03
    4    4   -0.58824224E-02  0.15877411E-09
    5    4   -0.10524306E-02 -0.65580276E-03
    6    4    0.24532370E-02  0.78845047E-03
    7    4    0.25411003E-02  0.35467543E-03
    8    4    0.73254504E-03  0.26743612E-03
    1    5   -0.12958722E-02  0.37407275E-03
    2    5    0.84196778E-03 -0.45978351E-03
    3    5   -0.15825477E-02  0.74190337E-03
    4    5    0.18527617E-02 -0.11545153E-02
    5    5    0.74724329E-03  0.84469907E-10
    6    5   -0.25567996E-02  0.64276310E-03
    7    5   -0.17406205E-02  0.77434043E-03
    8    5   -0.53010289E-02  0.11144271E-02
    1    6   -0.39671148E-02  0.13785477E-03
    2    6   -0.18890164E-02  0.48947585E-03
    3    6   -0.11486844E-01  0.22340573E-02
    4    6   -0.11140046E-01  0.35803188E-02
    5    6    0.33011630E-02  0.82989130E-03
    6    6   -0.58833786E-02 -0.21233569E-09
    7    6   -0.39107450E-02  0.68051079E-03
    8    6   -0.84298503E-02 -0.32959579E-03
    1    7    0.27536270E-02  0.38116795E-03
    2    7    0.27443745E-02 -0.22348627E-03
    3    7    0.34031741E-02 -0.67408891E-04
    4    7   -0.91268352E-02  0.12738828E-02
    5    7   -0.31099987E-02 -0.13835286E-02
    6    7    0.21509364E-02  0.37428547E-03
    7    7   -0.58833772E-02  0.65115222E-10
    8    7    0.10116619E-01  0.21707119E-02
    1    8    0.28072423E-02 -0.20759127E-03
    2    8    0.76793967E-03 -0.23135517E-03
    3    8   -0.61863437E-02  0.14561226E-02
    4    8   -0.45395466E-03  0.16572896E-03
    5    8    0.75496465E-02  0.15871511E-02
    6    8    0.35120487E-03 -0.13731672E-04
    7    8    0.11067132E-02 -0.23746655E-03
    8    8    0.74806676E-03 -0.11946891E-09

   -4    2    0
    1    1   -0.86672089E-03 -0.64434569E-12
    2    1    0.47171718E-03 -0.10489313E-03
    3    1    0.55316574E-02 -0.87768991E-03
    4    1    0.32748467E-02 -0.92834227E-03
    5    1    0.77075561E-03  0.22248983E-03
    6    1    0.11048000E-02  0.38391046E-04
    7    1   -0.41744690E-03  0.57784825E-04
    8    1    0.21773128E-02  0.16100903E-03
    1    2    0.82017918E-03  0.18237895E-03
    2    2   -0.86616842E-03  0.24835662E-09
    3    2    0.26822586E-03  0.16503131E-04
    4    2    0.12380350E-02 -0.71171886E-04
    5    2   -0.90256187E-03 -0.49287240E-03
    6    2   -0.15007616E-02 -0.38887195E-03
    7    2    0.39345981E-03  0.32041289E-04
    8    2   -0.10227484E-01 -0.30812070E-02
    1    3   -0.21229269E-02 -0.33683798E-03
    2    3    0.39620472E-02 -0.24377495E-03
    3    3   -0.86619468E-03 -0.85727554E-10
    4    3    0.18712438E-02 -0.22349741E-03
    5    3   -0.31891089E-03 -0.14950689E-03
    6    3   -0.18700638E-02 -0.36370574E-03
    7    3   -0.94026842E-04 -0.18626520E-05
    8    3    0.25088932E-02  0.59053523E-03
    1    4    0.12977494E-02  0.36788124E-03
    2    4    0.27753967E-02  0.15955155E-03
    3    4   -0.15922923E-02 -0.19017979E-03
    4    4   -0.50742040E-02 -0.14057483E-09
    5    4    0.21429955E-02  0.13353686E-02
    6    4    0.89762918E-04  0.28849006E-04
    7    4    0.27233262E-02  0.38010960E-03
    8    4   -0.12670711E-02 -0.46257992E-03
    1    5    0.34326688E-02 -0.99088996E-03
    2    5   -0.64735878E-02  0.35351097E-02
    3    5   -0.31897531E-03  0.14953621E-03
    4    5    0.54954320E-02 -0.34243785E-02
    5    5   -0.86615170E-03 -0.66526555E-10
    6    5   -0.24996270E-02  0.62838989E-03
    7    5    0.85951167E-04 -0.38236634E-04
    8    5    0.54520232E-02 -0.11461709E-02
    1    6    0.11048093E-02 -0.38391436E-04
    2    6   -0.18890266E-02  0.48947790E-03
    3    6    0.77124673E-03 -0.14999853E-03
    4    6   -0.22036208E-02  0.70822566E-03
    5    6   -0.65941089E-03 -0.16577141E-03
    6    6   -0.86672004E-03  0.16109059E-10
    7    6    0.15797908E-02 -0.27490010E-03
    8    6    0.68684183E-02  0.26854589E-03
    1    7   -0.83566116E-02 -0.11567561E-02
    2    7    0.48164586E-03 -0.39222526E-04
    3    7    0.23152459E-02 -0.45859384E-04
    4    7    0.63339142E-02 -0.88405996E-03
    5    7   -0.21157093E-02 -0.94120423E-03
    6    7   -0.18564361E-02 -0.32303932E-03
    7    7   -0.50741476E-02 -0.57220118E-10
    8    7   -0.18423974E-02 -0.39532117E-03
    1    8    0.35718582E-02 -0.26413342E-03
    2    8    0.16960567E-01 -0.51096651E-02
    3    8    0.66180316E-03 -0.15577298E-03
    4    8   -0.31974333E-02  0.11673126E-02
    5    8   -0.37257199E-03 -0.78325409E-04
    6    8    0.73709589E-02 -0.28819452E-03
    7    8    0.15678490E-02 -0.33641166E-03
    8    8   -0.86671973E-03 -0.86073301E-11

   -4    2    1
    1    1    0.74806928E-03  0.55935576E-10
    2    1    0.33224418E-02 -0.73879428E-03
    3    1   -0.21024598E-02  0.33359031E-03
    4    1   -0.14083287E-01  0.39922803E-02
    5    1   -0.46449023E-03 -0.13408179E-03
    6    1   -0.18831993E-02 -0.65439871E-04
    7    1    0.98032527E-03 -0.13570062E-03
    8    1   -0.35250035E-02 -0.26066880E-03
    1    2    0.18596692E-02  0.41352505E-03
    2    2   -0.58824229E-02 -0.88675942E-12
    3    2   -0.11037803E-02 -0.67913209E-04
    4    2   -0.84226957E-02  0.48420271E-03
    5    2   -0.60326283E-02 -0.32943092E-02
    6    2    0.20807844E-02  0.53916539E-03
    7    2    0.13443319E-02  0.10947482E-03
    8    2   -0.59742000E-02 -0.17998310E-02
    1    3   -0.51299554E-02 -0.81395317E-03
    2    3    0.98767019E-03 -0.60768373E-04
    3    3    0.74725200E-03 -0.91268278E-10
    4    3    0.39415830E-02 -0.47077404E-03
    5    3   -0.17064699E-02 -0.79999843E-03
    6    3    0.76511131E-03  0.14880516E-03
    7    3   -0.77967996E-03 -0.15443690E-04
    8    3   -0.18543979E-02 -0.43648249E-03
    1    4   -0.71606196E-02 -0.20298672E-02
    2    4    0.32737027E-02  0.18819788E-03
    3    4   -0.27953762E-02 -0.33387297E-03
    4    4    0.74698741E-03  0.10891702E-09
    5    4    0.23892880E-02  0.14888413E-02
    6    4    0.34019428E-02  0.10933567E-02
    7    4   -0.99347381E-03 -0.13866442E-03
    8    4    0.73216024E-03  0.26729593E-03
    1    5    0.90353655E-04 -0.26082189E-04
    2    5   -0.17075539E-03  0.93246726E-04
    3    5    0.12581231E-02 -0.58981222E-03
    4    5   -0.62600182E-02  0.39008168E-02
    5    5   -0.58824231E-02 -0.16422130E-09
    6    5    0.81519013E-03 -0.20493362E-03
    7    5    0.32643001E-02 -0.14521718E-02
    8    5    0.54520273E-02 -0.11461718E-02
    1    6   -0.39671183E-02  0.13785489E-03
    2    6   -0.18890245E-02  0.48947760E-03
    3    6   -0.47450474E-03  0.92285839E-04
    4    6    0.13936275E-01 -0.44790044E-02
    5    6    0.46889185E-03  0.11787635E-03
    6    6   -0.58833778E-02 -0.96423310E-10
    7    6   -0.97501801E-03  0.16966340E-03
    8    6    0.18828915E-02  0.73618499E-04
    1    7    0.98032710E-03  0.13570078E-03
    2    7   -0.78311356E-03  0.63772417E-04
    3    7    0.23141865E-02 -0.45838714E-04
    4    7    0.19327174E-02 -0.26975996E-03
    5    7    0.13374368E-01  0.59497842E-02
    6    7    0.10891063E-02  0.18951578E-03
    7    7    0.74806327E-03 -0.21493711E-09
    8    7   -0.34559715E-02 -0.74154406E-03
    1    8   -0.35372302E-02  0.26157287E-03
    2    8   -0.26361206E-02  0.79417727E-03
    3    8   -0.19286210E-01  0.45395286E-02
    4    8   -0.45413844E-03  0.16579627E-03
    5    8   -0.86724319E-02 -0.18231939E-02
    6    8    0.73709687E-02 -0.28819491E-03
    7    8   -0.34679571E-02  0.74411608E-03
    8    8   -0.58833786E-02  0.63719249E-10

   -4    2    2
    1    1   -0.50741475E-02  0.37261874E-09
    2    1   -0.25681716E-02  0.57107112E-03
    3    1   -0.39235159E-02  0.62253139E-03
    4    1    0.32745236E-02 -0.92825042E-03
    5    1    0.14064071E-01  0.40597998E-02
    6    1   -0.17469080E-02 -0.60703842E-04
    7    1   -0.83566074E-02  0.11567555E-02
    8    1   -0.18792062E-02 -0.13896458E-03
    1    2   -0.76126047E-03 -0.16927772E-03
    2    2   -0.86617296E-03  0.28948275E-11
    3    2    0.18810368E-02  0.11573571E-03
    4    2    0.39629368E-02 -0.22782033E-03
    5    2   -0.16540216E-02 -0.90323136E-03
    6    2    0.20807805E-02  0.53916466E-03
    7    2   -0.77728459E-03 -0.63297550E-04
    8    2    0.74631116E-03  0.22483899E-03
    1    3   -0.99069643E-03 -0.15719041E-03
    2    3   -0.16005847E-02  0.98479780E-04
    3    3   -0.50742041E-02 -0.33473834E-09
    4    3    0.27602802E-02 -0.32968153E-03
    5    3    0.76388327E-02  0.35811093E-02
    6    3   -0.13240426E-02 -0.25751094E-03
    7    3   -0.77927064E-03 -0.15435595E-04
    8    3   -0.60734354E-02 -0.14295469E-02
    1    4    0.12976350E-02  0.36784916E-03
    2    4    0.26828334E-03  0.15423270E-04
    3    4    0.12312880E-02  0.14706210E-03
    4    4   -0.86614799E-03  0.26957596E-10
    5    4    0.96035519E-03  0.59842769E-03
    6    4   -0.79991132E-03 -0.25708524E-03
    7    4    0.25409467E-02  0.35465418E-03
    8    4   -0.17895679E-02 -0.65333185E-03
    1    5    0.66386371E-03 -0.19163368E-03
    2    5   -0.10053333E-02  0.54899459E-03
    3    5   -0.17476396E-03  0.81930149E-04
    4    5   -0.40607598E-03  0.25303875E-03
    5    5   -0.86619295E-03  0.34014290E-09
    6    5    0.12412375E-02 -0.31203883E-03
    7    5   -0.76800689E-03  0.34165911E-03
    8    5    0.59548041E-03 -0.12518695E-03
    1    6   -0.98907676E-03  0.34369835E-04
    2    6   -0.54217861E-02  0.14048743E-02
    3    6   -0.33412210E-02  0.64982897E-03
    4    6   -0.46006726E-03  0.14786189E-03
    5    6    0.11348954E-01  0.28530543E-02
    6    6   -0.86672038E-03 -0.88461977E-10
    7    6   -0.39107472E-02  0.68051097E-03
    8    6    0.18828976E-02  0.73618870E-04
    1    7   -0.41744838E-03 -0.57784901E-04
    2    7    0.48092543E-03 -0.39163952E-04
    3    7   -0.26301943E-02  0.52097725E-04
    4    7   -0.11792509E-02  0.16459432E-03
    5    7   -0.44169922E-03 -0.19649677E-03
    6    7   -0.26483743E-03 -0.46084472E-04
    7    7   -0.86671895E-03 -0.75754192E-11
    8    7    0.21346700E-02  0.45803390E-03
    1    8    0.15991651E-02 -0.11825588E-03
    2    8   -0.46217866E-03  0.13923932E-03
    3    8    0.29425067E-02 -0.69259824E-03
    4    8    0.73810186E-03 -0.26946444E-03
    5    8   -0.86729269E-02 -0.18232954E-02
    6    8    0.19468847E-03 -0.76121952E-05
    7    8    0.35019059E-02 -0.75140002E-03
    8    8   -0.86672010E-03 -0.13364256E-09

   -3   -3    3
    1    1    0.37998892E-02  0.11205892E-14
    2    1    0.15037256E-02 -0.33437576E-03
    3    1    0.11997747E-02 -0.19036442E-03
    4    1   -0.96672266E-03  0.27404321E-03
    5    1   -0.83515795E-03 -0.24108048E-03
    6    1    0.15136829E-02  0.52599602E-04
    7    1    0.40723084E-03 -0.56370493E-04
    8    1   -0.49701322E-03 -0.36753322E-04
    1    2    0.15037260E-02  0.33437584E-03
    2    2    0.38001551E-02  0.11270003E-14
    3    2    0.49743390E-03  0.30605640E-04
    4    2    0.49757196E-03 -0.28604552E-04
    5    2   -0.17075340E-03 -0.93245470E-04
    6    2   -0.11759610E-02 -0.30471106E-03
    7    2    0.12756162E-02  0.10387890E-03
    8    2   -0.12254641E-02 -0.36919211E-03
    1    3    0.11997746E-02  0.19036441E-03
    2    3    0.49743333E-03 -0.30605605E-04
    3    3    0.38001554E-02  0.11071912E-14
    4    3    0.49489246E-03 -0.59108792E-04
    5    3   -0.13699989E-03 -0.64225823E-04
    6    3    0.98636215E-03  0.19183593E-03
    7    3    0.15401953E-02  0.30507686E-04
    8    3   -0.46967568E-03 -0.11055095E-03
    1    4   -0.96672275E-03 -0.27404324E-03
    2    4    0.49757322E-03  0.28604624E-04
    3    4    0.49489176E-03  0.59108709E-04
    4    4    0.38001550E-02  0.11255448E-14
    5    4    0.16959431E-02  0.10567961E-02
    6    4   -0.14665737E-02 -0.47134498E-03
    7    4   -0.12220443E-02 -0.17056744E-03
    8    4    0.94389261E-03  0.34459438E-03
    1    5   -0.83515998E-03  0.24108107E-03
    2    5   -0.17075356E-03  0.93245559E-04
    3    5   -0.13699947E-03  0.64225623E-04
    4    5    0.16959462E-02 -0.10567980E-02
    5    5    0.38001554E-02  0.11279921E-14
    6    5    0.46795349E-03 -0.11764046E-03
    7    5   -0.14075317E-02  0.62616092E-03
    8    5   -0.14066383E-03  0.29571725E-04
    1    6    0.15136831E-02 -0.52599606E-04
    2    6   -0.11759612E-02  0.30471111E-03
    3    6    0.98636203E-03 -0.19183591E-03
    4    6   -0.14665735E-02  0.47134491E-03
    5    6    0.46795436E-03  0.11764068E-03
    6    6    0.37998893E-02  0.11395727E-14
    7    6   -0.49099178E-03  0.85437762E-04
    8    6    0.11445606E-02  0.44750873E-04
    1    7    0.40723123E-03  0.56370546E-04
    2    7    0.12756158E-02 -0.10387886E-03
    3    7    0.15401957E-02 -0.30507696E-04
    4    7   -0.12220435E-02  0.17056733E-03
    5    7   -0.14075315E-02 -0.62616083E-03
    6    7   -0.49099088E-03 -0.85437607E-04
    7    7    0.37998891E-02  0.10754006E-14
    8    7   -0.48727769E-03 -0.10455471E-03
    1    8   -0.49701337E-03  0.36753334E-04
    2    8   -0.12254633E-02  0.36919187E-03
    3    8   -0.46967584E-03  0.11055098E-03
    4    8    0.94389260E-03 -0.34459437E-03
    5    8   -0.14066362E-03 -0.29571679E-04
    6    8    0.11445617E-02 -0.44750916E-04
    7    8   -0.48727786E-03  0.10455475E-03
    8    8    0.37998892E-02  0.11241833E-14

   -3   -2    2
    1    1   -0.72340530E-03 -0.87307996E-11
    2    1    0.47118978E-03 -0.10477598E-03
    3    1    0.46704690E-04 -0.74101990E-05
    4    1    0.46421330E-03 -0.13159350E-03
    5    1   -0.12296253E-02 -0.35494964E-03
    6    1    0.20687279E-02  0.71886977E-04
    7    1   -0.14781075E-02  0.20460581E-03
    8    1    0.19923555E-02  0.14733157E-03
    1    2    0.47118854E-03  0.10477576E-03
    2    2   -0.72352767E-03  0.47466111E-10
    3    2    0.26822485E-03  0.16503390E-04
    4    2   -0.19949577E-02  0.11468558E-03
    5    2   -0.41993775E-03 -0.22932070E-03
    6    2    0.16957127E-02  0.43938717E-03
    7    2    0.68917893E-03  0.56122852E-04
    8    2   -0.21968573E-03 -0.66184226E-04
    1    3    0.11998055E-02  0.19036908E-03
    2    3    0.49746886E-03 -0.30607877E-04
    3    3   -0.72353144E-03 -0.99232098E-10
    4    3   -0.20553002E-02  0.24548044E-03
    5    3   -0.10371508E-02 -0.48621941E-03
    6    3    0.98633247E-03  0.19183026E-03
    7    3    0.86908959E-03  0.17214548E-04
    8    3    0.35862658E-03  0.84412437E-04
    1    4    0.64447543E-03  0.18269358E-03
    2    4    0.31194839E-03  0.17933216E-04
    3    4    0.19165192E-03  0.22890188E-04
    4    4   -0.21998844E-02 -0.96012383E-11
    5    4   -0.16386375E-03 -0.10210848E-03
    6    4   -0.82741703E-03 -0.26592516E-03
    7    4    0.65920320E-02  0.92008624E-03
    8    4   -0.81639229E-03 -0.29804675E-03
    1    5    0.20443124E-02 -0.59012071E-03
    2    5   -0.11888684E-03  0.64922018E-04
    3    5    0.14519619E-02 -0.68068434E-03
    4    5    0.35750394E-03 -0.22277176E-03
    5    5   -0.21998983E-02 -0.93668343E-11
    6    5   -0.66996613E-03  0.16842506E-03
    7    5    0.19440979E-02 -0.86486042E-03
    8    5    0.26908896E-02 -0.56570176E-03
    1    6    0.20687314E-02 -0.71887268E-04
    2    6    0.16957119E-02 -0.43938708E-03
    3    6   -0.32919033E-03  0.64023723E-04
    4    6    0.35076187E-03 -0.11273199E-03
    5    6    0.32522040E-03  0.81758336E-04
    6    6   -0.72340456E-03 -0.10469818E-09
    7    6   -0.18981579E-03  0.33029964E-04
    8    6   -0.61444546E-03 -0.24023810E-04
    1    7    0.49366284E-03  0.68334733E-04
    2    7    0.33424135E-03 -0.27218767E-04
    3    7   -0.36835055E-03  0.72960513E-05
    4    7   -0.17348950E-02  0.24214899E-03
    5    7   -0.14074379E-02 -0.62611935E-03
    6    7    0.20393346E-02  0.35486540E-03
    7    7   -0.21998156E-02 -0.51943935E-10
    8    7   -0.11199464E-02 -0.24030570E-03
    1    8   -0.31148672E-03  0.23033840E-04
    2    8    0.33012542E-02 -0.99456002E-03
    3    8   -0.22309766E-03  0.52511836E-04
    4    8   -0.81654338E-03  0.29810200E-03
    5    8    0.46261510E-04  0.97255929E-05
    6    8   -0.19962725E-02  0.78051527E-04
    7    8    0.14589927E-02 -0.31305440E-03
    8    8   -0.21998173E-02  0.13124806E-09

   -3   -2    3
    1    1   -0.21998178E-02 -0.20898332E-10
    2    1   -0.67448043E-03  0.14998087E-03
    3    1   -0.14195413E-03  0.22523446E-04
    4    1    0.46439505E-03 -0.13164521E-03
    5    1    0.96541366E-03  0.27868066E-03
    6    1   -0.11447479E-02 -0.39779271E-04
    7    1    0.49366189E-03 -0.68334781E-04
    8    1   -0.11423174E-02 -0.84472652E-04
    1    2   -0.98087351E-03 -0.21811189E-03
    2    2   -0.72353447E-03 -0.14765352E-09
    3    2   -0.20660026E-02 -0.12711583E-03
    4    2    0.49756988E-03 -0.28604397E-04
    5    2    0.18166836E-02  0.99205795E-03
    6    2   -0.11759616E-02 -0.30471118E-03
    7    2    0.66760691E-03  0.54366109E-04
    8    2   -0.83215488E-03 -0.25070093E-03
    1    3   -0.12186421E-02 -0.19335808E-03
    2    3    0.19267992E-03 -0.11855151E-04
    3    3   -0.21998996E-02  0.60862287E-10
    4    3    0.31023498E-03 -0.37053549E-04
    5    3    0.13714930E-02  0.64296050E-03
    6    3   -0.65756591E-03 -0.12788895E-03
    7    3   -0.10046343E-02 -0.19899499E-04
    8    3   -0.46985579E-03 -0.11059314E-03
    1    4    0.64441714E-03  0.18267710E-03
    2    4    0.26827801E-03  0.15422561E-04
    3    4   -0.19841388E-02 -0.23698093E-03
    4    4   -0.72352528E-03  0.32885542E-10
    5    4   -0.42297262E-03 -0.26356748E-03
    6    4   -0.45955178E-03 -0.14769625E-03
    7    4   -0.12220374E-02 -0.17056660E-03
    8    4   -0.14470610E-02 -0.52829002E-03
    1    5   -0.44376806E-02  0.12810015E-02
    2    5   -0.30920233E-03  0.16884911E-03
    3    5    0.22862400E-02 -0.10717966E-02
    4    5   -0.87279466E-03  0.54386570E-03
    5    5   -0.21998845E-02 -0.10129107E-09
    6    5   -0.77801574E-03  0.19558810E-03
    7    5    0.63118129E-03 -0.28079016E-03
    8    5   -0.27435101E-02  0.57676413E-03
    1    6   -0.49806918E-03  0.17307618E-04
    2    6   -0.45767914E-04  0.11859289E-04
    3    6   -0.47364948E-03  0.92119359E-04
    4    6   -0.45954393E-03  0.14769382E-03
    5    6   -0.97449302E-03 -0.24498140E-03
    6    6   -0.72340486E-03 -0.26401496E-10
    7    6   -0.49099178E-03  0.85437725E-04
    8    6    0.15112576E-03  0.59087864E-05
    1    7   -0.14781057E-02 -0.20460546E-03
    2    7    0.83780530E-03 -0.68226141E-04
    3    7   -0.69066583E-03  0.13680430E-04
    4    7    0.19278116E-02 -0.26907523E-03
    5    7    0.91808166E-03  0.40842209E-03
    6    7   -0.26483837E-03 -0.46084634E-04
    7    7   -0.72340575E-03 -0.24978977E-11
    8    7    0.19533424E-02  0.41912659E-03
    1    8    0.14881365E-02 -0.11004557E-03
    2    8    0.25242853E-02 -0.76048482E-03
    3    8   -0.38432119E-03  0.90460397E-04
    4    8   -0.12022158E-02  0.43890247E-03
    5    8   -0.17142419E-02 -0.36038252E-03
    6    8   -0.95885511E-03  0.37489844E-04
    7    8   -0.30538463E-03  0.65526074E-04
    8    8   -0.21998163E-02  0.23828640E-10

   -3   -1    1
    1    1    0.68878391E-03  0.17121901E-09
    2    1    0.26875052E-02 -0.59760689E-03
    3    1    0.60097934E-03 -0.95355251E-04
    4    1   -0.77184070E-03  0.21879866E-03
    5    1    0.25329333E-02  0.73116825E-03
    6    1   -0.47750145E-03 -0.16592884E-04
    7    1   -0.26014145E-03  0.36009783E-04
    8    1   -0.10255078E-02 -0.75835037E-04
    1    2    0.26875082E-02  0.59760766E-03
    2    2    0.68849125E-03  0.21864285E-10
    3    2   -0.21789036E-02 -0.13406204E-03
    4    2    0.10265869E-02 -0.59015870E-04
    5    2    0.19159735E-02  0.10462781E-02
    6    2    0.11526028E-02  0.29865834E-03
    7    2   -0.85134109E-02 -0.69328332E-03
    8    2   -0.92218359E-02 -0.27782374E-02
    1    3    0.46682891E-04  0.74070915E-05
    2    3    0.26821429E-03 -0.16502575E-04
    3    3    0.68849114E-03 -0.40050157E-10
    4    3    0.19315847E-03 -0.23070366E-04
    5    3    0.86862253E-03  0.40721301E-03
    6    3   -0.32917053E-03 -0.64019723E-04
    7    3   -0.30225529E-02 -0.59869817E-04
    8    3   -0.36527551E-02 -0.85977427E-03
    1    4    0.66503566E-03  0.18852199E-03
    2    4    0.26404173E-02  0.15179149E-03
    3    4   -0.13797265E-02 -0.16479155E-03
    4    4   -0.26749884E-02  0.50105633E-10
    5    4   -0.14833260E-02 -0.92430767E-03
    6    4    0.28779103E-02  0.92493694E-03
    7    4   -0.39344564E-02 -0.54915372E-03
    8    4   -0.43388436E-02 -0.15840161E-02
    1    5   -0.12959393E-02  0.37409216E-03
    2    5   -0.24398314E-02  0.13323479E-02
    3    5   -0.32111674E-02  0.15054058E-02
    4    5   -0.83985281E-03  0.52333889E-03
    5    5   -0.26750234E-02  0.14461953E-09
    6    5   -0.91444486E-04  0.22988684E-04
    7    5   -0.29634196E-02  0.13183203E-02
    8    5   -0.98163036E-03  0.20636684E-03
    1    6   -0.47750587E-03  0.16593020E-04
    2    6    0.11526114E-02 -0.29866046E-03
    3    6   -0.21048277E-03  0.40936545E-04
    4    6    0.64726537E-03 -0.20802603E-03
    5    6    0.81485526E-03  0.20484936E-03
    6    6    0.68878464E-03 -0.15173567E-09
    7    6    0.13684505E-02 -0.23812469E-03
    8    6    0.41241371E-02  0.16124784E-03
    1    7   -0.95052415E-03 -0.13157554E-03
    2    7    0.27440677E-02 -0.22346120E-03
    3    7   -0.68017331E-03  0.13472736E-04
    4    7    0.55470808E-02 -0.77423665E-03
    5    7    0.19439151E-02  0.86477926E-03
    6    7   -0.19195179E-03 -0.33401662E-04
    7    7   -0.26751057E-02  0.57824402E-10
    8    7    0.15678465E-02  0.33641113E-03
    1    8   -0.26385463E-02  0.19511651E-03
    2    8   -0.11092681E-01  0.33418627E-02
    3    8   -0.44803906E-02  0.10545809E-02
    4    8   -0.43387712E-02  0.15839900E-02
    5    8    0.15171542E-02  0.31894887E-03
    6    8   -0.12608243E-02  0.49296453E-04
    7    8   -0.12123077E-02  0.26012338E-03
    8    8   -0.26751066E-02  0.14369824E-09

   -3   -1    2
    1    1    0.21345339E-02 -0.78437760E-10
    2    1   -0.78290991E-03  0.17409175E-03
    3    1   -0.10258315E-02  0.16276508E-03
    4    1   -0.75588465E-03  0.21427569E-03
    5    1   -0.12296609E-02 -0.35495971E-03
    6    1   -0.19471721E-03 -0.67664791E-05
    7    1    0.61814617E-04 -0.85566940E-05
    8    1    0.42028247E-03  0.31079245E-04
    1    2    0.32735438E-03  0.72791965E-04
    2    2   -0.97449995E-03 -0.11417011E-09
    3    2    0.47755828E-03  0.29382839E-04
    4    2   -0.95774778E-03  0.55058842E-04
    5    2   -0.23584717E-03 -0.12879207E-03
    6    2   -0.45768567E-04 -0.11859404E-04
    7    2    0.68918061E-03  0.56122912E-04
    8    2   -0.37798265E-03 -0.11387396E-03
    1    3    0.34253529E-03  0.54349015E-04
    2    3    0.62170749E-04 -0.38250512E-05
    3    3    0.21346540E-02 -0.18048913E-10
    4    3    0.26685636E-03 -0.31872588E-04
    5    3   -0.45125868E-03 -0.21155153E-03
    6    3   -0.12563260E-02 -0.24434078E-03
    7    3    0.12795789E-02  0.25345563E-04
    8    3    0.67256443E-03  0.15830619E-03
    1    4   -0.33171026E-02 -0.94032058E-03
    2    4   -0.39151051E-02 -0.22507103E-03
    3    4   -0.12518835E-02 -0.14952148E-03
    4    4    0.21346561E-02  0.16323486E-09
    5    4    0.12665554E-02  0.78923088E-03
    6    4   -0.21842083E-03 -0.70198501E-04
    7    4   -0.11623397E-02 -0.16223379E-03
    8    4    0.19985985E-02  0.72964427E-03
    1    5   -0.31161836E-02  0.89953230E-03
    2    5    0.47900298E-02 -0.26157487E-02
    3    5    0.25489944E-02 -0.11949771E-02
    4    5   -0.23593468E-02  0.14701843E-02
    5    5    0.33272867E-02  0.19111308E-09
    6    5    0.64560744E-03 -0.16230154E-03
    7    5   -0.12324394E-02  0.54826845E-03
    8    5   -0.98165338E-03  0.20637150E-03
    1    6   -0.26865571E-03  0.93356923E-05
    2    6    0.11526000E-02 -0.29865795E-03
    3    6   -0.27028217E-02  0.52566756E-03
    4    6    0.74802128E-03 -0.24040803E-03
    5    6    0.12412461E-02  0.31204133E-03
    6    6   -0.97455729E-03  0.12624766E-10
    7    6   -0.61478060E-04  0.10697769E-04
    8    6   -0.16023072E-02 -0.62648035E-04
    1    7    0.61809850E-04  0.85559761E-05
    2    7    0.21372338E-03 -0.17404082E-04
    3    7   -0.67977808E-03  0.13464588E-04
    4    7   -0.11792494E-02  0.16459440E-03
    5    7   -0.79406860E-03 -0.35325303E-03
    6    7   -0.47071858E-03 -0.81910195E-04
    7    7    0.21345333E-02  0.98740103E-10
    8    7    0.41204938E-03  0.88413031E-04
    1    8   -0.44708048E-02  0.33060917E-03
    2    8   -0.10227344E-01  0.30811645E-02
    3    8   -0.77193112E-02  0.18169486E-02
    4    8    0.28398158E-02 -0.10367544E-02
    5    8    0.19048387E-02  0.40045137E-03
    6    8   -0.12608366E-02  0.49297076E-04
    7    8   -0.43832476E-02  0.94050870E-03
    8    8    0.33273499E-02 -0.93353814E-10

   -3   -1    3
    1    1   -0.26751054E-02 -0.11086569E-09
    2    1    0.64962443E-03 -0.14445390E-03
    3    1   -0.37600976E-03  0.59660268E-04
    4    1   -0.77164439E-03  0.21874262E-03
    5    1   -0.83500436E-03 -0.24103626E-03
    6    1   -0.13559874E-03 -0.47120738E-05
    7    1   -0.95052505E-03  0.13157538E-03
    8    1    0.15991662E-02  0.11825602E-03
    1    2    0.12493261E-02  0.27780627E-03
    2    2    0.68849184E-03 -0.20531112E-10
    3    2    0.19418370E-03  0.11947871E-04
    4    2    0.26828686E-03 -0.15423142E-04
    5    2   -0.43743555E-03 -0.23887571E-03
    6    2   -0.45765523E-04 -0.11858625E-04
    7    2    0.12756167E-02  0.10387909E-03
    8    2    0.20371669E-02  0.61373189E-03
    1    3   -0.11590473E-02 -0.18390228E-03
    2    3   -0.13869474E-02  0.85335487E-04
    3    3   -0.26750237E-02  0.13969519E-09
    4    3    0.26260746E-02 -0.31365217E-03
    5    3   -0.37227130E-03 -0.17452188E-03
    6    3   -0.67850899E-03 -0.13196203E-03
    7    3    0.12796178E-02  0.25346250E-04
    8    3   -0.38423195E-03 -0.90439419E-04
    1    4    0.66522399E-03  0.18857539E-03
    2    4   -0.21794669E-02 -0.12529267E-03
    3    4    0.10209865E-02  0.12194420E-03
    4    4    0.68849255E-03 -0.17571052E-09
    5    4   -0.26519254E-03 -0.16524990E-03
    6    4   -0.26210966E-02 -0.84239904E-03
    7    4    0.19277656E-02  0.26906890E-03
    8    4    0.64907999E-03  0.23696473E-03
    1    5    0.11673642E-01 -0.33697676E-02
    2    5    0.12194976E-02 -0.66594615E-03
    3    5   -0.62390396E-02  0.29248818E-02
    4    5   -0.23779337E-01  0.14817663E-01
    5    5   -0.26749858E-02 -0.34483937E-10
    6    5   -0.80664167E-02  0.20278451E-02
    7    5   -0.60823325E-03  0.27058112E-03
    8    5    0.56547925E-02 -0.11887993E-02
    1    6   -0.62362535E-04  0.21672525E-05
    2    6   -0.58904938E-03  0.15263261E-03
    3    6    0.78750020E-03 -0.15315976E-03
    4    6   -0.26211120E-02  0.84240402E-03
    5    6    0.64967197E-03  0.16332343E-03
    6    6    0.68878444E-03  0.50704701E-10
    7    6   -0.26483271E-03  0.46083676E-04
    8    6   -0.16023079E-02 -0.62647975E-04
    1    7   -0.26014413E-03 -0.36010327E-04
    2    7   -0.25689039E-02  0.20919673E-03
    3    7    0.66555746E-03 -0.13182846E-04
    4    7   -0.62742204E-02  0.87572721E-03
    5    7   -0.11693797E-02 -0.52021563E-03
    6    7    0.21509334E-02  0.37428473E-03
    7    7    0.68878590E-03  0.49477061E-10
    8    7   -0.10054132E-02 -0.21573061E-03
    1    8   -0.12365152E-02  0.91438313E-04
    2    8   -0.59732699E-02  0.17995509E-02
    3    8   -0.60024026E-02  0.14128281E-02
    4    8    0.85349379E-03 -0.31159203E-03
    5    8    0.19048336E-02  0.40045037E-03
    6    8   -0.35788767E-02  0.13992899E-03
    7    8   -0.25868744E-02  0.55506306E-03
    8    8   -0.26751047E-02 -0.46014508E-10

   -3    0    0
    1    1    0.65864565E-02  0.10876671E-14
    2    1   -0.17291217E-01  0.38449611E-02
    3    1    0.60097625E-03 -0.95354938E-04
    4    1   -0.80018544E-02  0.22683370E-02
    5    1   -0.59947125E-02 -0.17304609E-02
    6    1    0.51509679E-02  0.17899310E-03
    7    1    0.68087544E-02 -0.94249538E-03
    8    1   -0.27941628E-01 -0.20662414E-02
    1    2   -0.17291173E-01 -0.38449512E-02
    2    2    0.65875168E-02 -0.36247468E-15
    3    2   -0.21789138E-02 -0.13406285E-03
    4    2    0.27972181E-01 -0.16080615E-02
    5    2    0.90804385E-02  0.49586635E-02
    6    2   -0.19560051E-01 -0.50683322E-02
    7    2    0.15438009E-01  0.12571825E-02
    8    2    0.27830589E-01  0.83844492E-02
    1    3    0.60097586E-03  0.95354876E-04
    2    3   -0.21789059E-02  0.13406237E-03
    3    3    0.65875118E-02  0.28016244E-14
    4    3    0.34977558E-03 -0.41776028E-04
    5    3    0.32423300E-02  0.15200145E-02
    6    3   -0.21048925E-03 -0.40937897E-04
    7    3    0.19809853E-01  0.39238613E-03
    8    3    0.15425173E-01  0.36307305E-02
    1    4   -0.80019134E-02 -0.22683537E-02
    2    4    0.27972310E-01  0.16080689E-02
    3    4    0.34980599E-03  0.41779660E-04
    4    4    0.14568177E-01  0.23151810E-14
    5    4    0.71602228E-02  0.44617624E-02
    6    4   -0.18863008E-01 -0.60624166E-02
    7    4   -0.21083229E-02 -0.29427022E-03
    8    4    0.11413497E-01  0.41668161E-02
    1    5   -0.59947132E-02  0.17304611E-02
    2    5    0.90804383E-02 -0.49586634E-02
    3    5    0.32423232E-02 -0.15200113E-02
    4    5    0.71602228E-02 -0.44617624E-02
    5    5    0.14568407E-01  0.19837689E-15
    6    5   -0.34654854E-02  0.87120066E-03
    7    5   -0.29638829E-02  0.13185271E-02
    8    5    0.25107503E-02 -0.52783163E-03
    1    6    0.51510083E-02 -0.17899450E-03
    2    6   -0.19560081E-01  0.50683398E-02
    3    6   -0.21048925E-03  0.40937897E-04
    4    6   -0.18862902E-01  0.60623825E-02
    5    6   -0.34654848E-02 -0.87120052E-03
    6    6    0.65864586E-02  0.12335088E-14
    7    6   -0.34624862E-03  0.60251057E-04
    8    6   -0.22937588E-01 -0.89682856E-03
    1    7    0.68087356E-02  0.94249279E-03
    2    7    0.15438007E-01 -0.12571823E-02
    3    7    0.19809964E-01 -0.39238834E-03
    4    7   -0.21083229E-02  0.29427022E-03
    5    7   -0.29638829E-02 -0.13185271E-02
    6    7   -0.34627879E-03 -0.60256307E-04
    7    7    0.14568006E-01  0.12613253E-14
    8    7    0.27522519E-02  0.59054806E-03
    1    8   -0.27941757E-01  0.20662510E-02
    2    8    0.27830479E-01 -0.83844160E-02
    3    8    0.15425063E-01 -0.36307045E-02
    4    8    0.11413389E-01 -0.41667766E-02
    5    8    0.25107512E-02  0.52783181E-03
    6    8   -0.22937455E-01  0.89682334E-03
    7    8    0.27522675E-02 -0.59055142E-03
    8    8    0.14568007E-01  0.15267802E-14

   -3    0    1
    1    1   -0.44009958E-02  0.19977020E-09
    2    1    0.15119783E-01 -0.33621104E-02
    3    1   -0.62899919E-02  0.99801306E-03
    4    1    0.46512591E-03 -0.13185249E-03
    5    1    0.87285035E-03  0.25196143E-03
    6    1   -0.73721359E-02 -0.25617704E-03
    7    1   -0.54058103E-02  0.74829396E-03
    8    1   -0.27723071E-02 -0.20500804E-03
    1    2    0.20931738E-03  0.46544821E-04
    2    2   -0.11272668E-02 -0.14822547E-09
    3    2   -0.51451453E-02 -0.31656728E-03
    4    2    0.68621547E-02 -0.39449015E-03
    5    2   -0.28779668E-02 -0.15716054E-02
    6    2   -0.58905122E-03 -0.15263302E-03
    7    2   -0.82901591E-02 -0.67510268E-03
    8    2    0.29387619E-02  0.88535361E-03
    1    3    0.15311816E-02  0.24294760E-03
    2    3    0.32729239E-02 -0.20137454E-03
    3    3   -0.44006174E-02 -0.81824061E-11
    4    3   -0.10980468E-02  0.13114803E-03
    5    3   -0.56379953E-04 -0.26431357E-04
    6    3   -0.82475254E-03 -0.16040463E-03
    7    3   -0.90841619E-03 -0.17993828E-04
    8    3    0.91570459E-04  0.21553593E-04
    1    4    0.10276578E-01  0.29131685E-02
    2    4    0.12887523E-01  0.74087500E-03
    3    4   -0.22795083E-01 -0.27225959E-02
    4    4   -0.78613132E-02  0.60269161E-10
    5    4   -0.10524698E-02 -0.65582749E-03
    6    4   -0.43814460E-02 -0.14081600E-02
    7    4    0.31234969E-02  0.43596281E-03
    8    4   -0.30472426E-02 -0.11124812E-02
    1    5    0.71507760E-02 -0.20641760E-02
    2    5   -0.28779158E-02  0.15715783E-02
    3    5    0.10245545E-02 -0.48031474E-03
    4    5   -0.33689151E-02  0.20992783E-02
    5    5   -0.46740199E-02  0.42284255E-09
    6    5   -0.34654643E-02  0.87119539E-03
    7    5    0.68002366E-02 -0.30251845E-02
    8    5   -0.50830177E-02  0.10685953E-02
    1    6    0.21819341E-02 -0.75820839E-04
    2    6    0.89205413E-02 -0.23114595E-02
    3    6    0.17387552E-01 -0.33816770E-02
    4    6   -0.46020108E-03  0.14790487E-03
    5    6   -0.88106557E-03 -0.22149396E-03
    6    6   -0.11274874E-02 -0.48662827E-10
    7    6    0.53765246E-02 -0.93557138E-03
    8    6    0.35441823E-02  0.13857282E-03
    1    7   -0.35477836E-02 -0.49109868E-03
    2    7   -0.17655122E-01  0.14377315E-02
    3    7   -0.39087846E-01  0.77423702E-03
    4    7    0.19326650E-02 -0.26975307E-03
    5    7   -0.42202009E-02 -0.18774183E-02
    6    7   -0.72673940E-02 -0.12646023E-02
    7    7   -0.78604795E-02  0.18850893E-11
    8    7   -0.96764856E-03 -0.20762738E-03
    1    8    0.11836253E-01 -0.87527371E-03
    2    8    0.27830594E-01 -0.83844454E-02
    3    8    0.79510088E-01 -0.18714845E-01
    4    8   -0.59690627E-02  0.21791740E-02
    5    8   -0.99122447E-02 -0.20838368E-02
    6    8   -0.22370825E-02  0.87466602E-04
    7    8    0.40542402E-01 -0.86991404E-02
    8    8   -0.46744400E-02 -0.13645430E-09

   -3    0    2
    1    1   -0.78604785E-02  0.15287875E-09
    2    1   -0.81193087E-02  0.18054501E-02
    3    1   -0.87524912E-02  0.13887291E-02
    4    1    0.46489642E-03 -0.13178711E-03
    5    1    0.29043307E-02  0.83837773E-03
    6    1   -0.35126846E-03 -0.12206393E-04
    7    1   -0.35477789E-02  0.49109781E-03
    8    1   -0.98698167E-03 -0.72985872E-04
    1    2    0.82053479E-03  0.18245840E-03
    2    2   -0.11272891E-02  0.35232471E-09
    3    2    0.73620167E-02  0.45296627E-03
    4    2   -0.11040522E-02  0.63469696E-04
    5    2   -0.54668303E-04 -0.29853581E-04
    6    2    0.38904852E-02  0.10080888E-02
    7    2   -0.90562215E-03 -0.73748523E-04
    8    2   -0.12914487E-02 -0.38907096E-03
    1    3    0.74951469E-04  0.11892315E-04
    2    3   -0.54474023E-02  0.33516445E-03
    3    3   -0.78613646E-02 -0.79310690E-11
    4    3    0.32559148E-02 -0.38887925E-03
    5    3    0.13512101E-02  0.63345159E-03
    6    3    0.89176895E-03  0.17343914E-03
    7    3   -0.26358343E-02 -0.52209727E-04
    8    3   -0.13129017E-02 -0.30902709E-03
    1    4    0.10276391E-01  0.29131158E-02
    2    4   -0.14087310E-01 -0.80984890E-03
    3    4   -0.12355334E-01 -0.14756923E-02
    4    4   -0.44006445E-02 -0.43272468E-09
    5    4   -0.38049607E-02 -0.23709920E-02
    6    4   -0.71753494E-03 -0.23060933E-03
    7    4   -0.10031655E-01 -0.14001731E-02
    8    4   -0.12670023E-02 -0.46255485E-03
    1    5   -0.31167096E-02  0.89968399E-03
    2    5   -0.54666935E-04  0.29852621E-04
    3    5   -0.11227750E-02  0.52636049E-03
    4    5   -0.27830217E-02  0.17341897E-02
    5    5   -0.46739356E-02  0.41158122E-10
    6    5   -0.88107617E-03  0.22149694E-03
    7    5   -0.57007076E-02  0.25360432E-02
    8    5    0.25107966E-02 -0.52784110E-03
    1    6   -0.32774154E-02  0.11388839E-03
    2    6   -0.19560058E-01  0.50683345E-02
    3    6   -0.15204708E-01  0.29571400E-02
    4    6    0.49155978E-02 -0.15798329E-02
    5    6    0.67036349E-03  0.16852522E-03
    6    6   -0.11274942E-02  0.20480699E-09
    7    6   -0.32308367E-02  0.56219954E-03
    8    6    0.98891304E-03  0.38665179E-04
    1    7   -0.54057875E-02 -0.74829125E-03
    2    7    0.21372256E-03 -0.17404285E-04
    3    7    0.19809694E-01 -0.39238204E-03
    4    7    0.20012066E-01 -0.27931949E-02
    5    7    0.27619476E-02  0.12286931E-02
    6    7    0.50777894E-02  0.88358835E-03
    7    7   -0.44009871E-02  0.69092006E-10
    8    7   -0.27180290E-02 -0.58320456E-03
    1    8    0.41352291E-01 -0.30579400E-02
    2    8    0.29387067E-02 -0.88533612E-03
    3    8   -0.23601069E-01  0.55551435E-02
    4    8   -0.18612269E-01  0.67949303E-02
    5    8   -0.14399826E-01 -0.30272539E-02
    6    8   -0.22937478E-01  0.89682441E-03
    7    8    0.11604468E-01 -0.24899587E-02
    8    8   -0.46744312E-02 -0.23492958E-09

   -3    0    3
    1    1    0.14568003E-01 -0.36471315E-17
    2    1   -0.88695221E-03  0.19722709E-03
    3    1    0.31146038E-02 -0.49418375E-03
    4    1   -0.80022607E-02  0.22684541E-02
    5    1   -0.44377540E-02 -0.12810227E-02
    6    1    0.54540496E-02  0.18952498E-03
    7    1    0.68087548E-02 -0.94249552E-03
    8    1    0.28072494E-02  0.20759197E-03
    1    2   -0.88694842E-03 -0.19722625E-03
    2    2    0.65875107E-02  0.41165391E-16
    3    2    0.35155942E-03  0.21630501E-04
    4    2   -0.21793836E-02  0.12528823E-03
    5    2   -0.16942767E-03 -0.92521516E-04
    6    2   -0.58903471E-03 -0.15262881E-03
    7    2    0.83779759E-03  0.68225553E-04
    8    2   -0.12914433E-02 -0.38906960E-03
    1    3    0.31146027E-02  0.49418357E-03
    2    3    0.35155767E-03 -0.21630393E-04
    3    3    0.14568415E-01 -0.25662926E-16
    4    3    0.27821313E-01 -0.33229143E-02
    5    3    0.89947974E-03  0.42167908E-03
    6    3    0.81643228E-02  0.15878656E-02
    7    3   -0.90831340E-03 -0.17991421E-04
    8    3   -0.60032281E-02 -0.14130217E-02
    1    4   -0.80022602E-02 -0.22684539E-02
    2    4   -0.21793831E-02 -0.12528820E-03
    3    4    0.27821315E-01  0.33229146E-02
    4    4    0.65875200E-02  0.72258041E-18
    5    4   -0.22447237E-02 -0.13987589E-02
    6    4    0.16863967E-01  0.54199398E-02
    7    4   -0.62740829E-02 -0.87570826E-03
    8    4   -0.62515745E-03 -0.22823105E-03
    1    5   -0.44377533E-02  0.12810225E-02
    2    5   -0.16942659E-03  0.92520927E-04
    3    5    0.89947974E-03 -0.42167908E-03
    4    5   -0.22447245E-02  0.13987594E-02
    5    5    0.14568166E-01 -0.65606893E-17
    6    5    0.67040548E-03 -0.16853556E-03
    7    5    0.83004971E-03 -0.36926014E-03
    8    5   -0.99122708E-02  0.20838420E-02
    1    6    0.54540481E-02 -0.18952493E-03
    2    6   -0.58903478E-03  0.15262882E-03
    3    6    0.81643222E-02 -0.15878655E-02
    4    6    0.16863967E-01 -0.54199399E-02
    5    6    0.67040678E-03  0.16853589E-03
    6    6    0.65864604E-02 -0.80017702E-17
    7    6    0.21509419E-02 -0.37428616E-03
    8    6    0.35441801E-02  0.13857271E-03
    1    7    0.68087558E-02  0.94249565E-03
    2    7    0.83780740E-03 -0.68226352E-04
    3    7   -0.90830952E-03  0.17991344E-04
    4    7   -0.62740840E-02  0.87570842E-03
    5    7    0.83005023E-03  0.36926037E-03
    6    7    0.21509423E-02  0.37428625E-03
    7    7    0.65864578E-02 -0.25560748E-16
    8    7   -0.27394476E-01 -0.58780037E-02
    1    8    0.28072479E-02 -0.20759186E-03
    2    8   -0.12914473E-02  0.38907081E-03
    3    8   -0.60032346E-02  0.14130232E-02
    4    8   -0.62515661E-03  0.22823074E-03
    5    8   -0.99122693E-02 -0.20838417E-02
    6    8    0.35441800E-02 -0.13857271E-03
    7    8   -0.27394477E-01  0.58780039E-02
    8    8    0.14568006E-01  0.19858731E-17

   -3    1   -1
    1    1    0.68878391E-03 -0.17121833E-09
    2    1    0.26875091E-02 -0.59760785E-03
    3    1    0.46683201E-04 -0.74071406E-05
    4    1    0.66503608E-03 -0.18852211E-03
    5    1   -0.12959421E-02 -0.37409297E-03
    6    1   -0.47750384E-03 -0.16592950E-04
    7    1   -0.95052377E-03  0.13157549E-03
    8    1   -0.26385398E-02 -0.19511603E-03
    1    2    0.26875043E-02  0.59760670E-03
    2    2    0.68849125E-03 -0.21863598E-10
    3    2    0.26821313E-03  0.16502503E-04
    4    2    0.26404108E-02 -0.15179112E-03
    5    2   -0.24398308E-02 -0.13323476E-02
    6    2    0.11526100E-02  0.29866009E-03
    7    2    0.27440682E-02  0.22346124E-03
    8    2   -0.11092681E-01 -0.33418627E-02
    1    3    0.60097895E-03  0.95355189E-04
    2    3   -0.21788957E-02  0.13406155E-03
    3    3    0.68849114E-03  0.40050696E-10
    4    3   -0.13797056E-02  0.16478905E-03
    5    3   -0.32111664E-02 -0.15054053E-02
    6    3   -0.21048277E-03 -0.40936545E-04
    7    3   -0.68017230E-03 -0.13472716E-04
    8    3   -0.44804438E-02 -0.10545934E-02
    1    4   -0.77184069E-03 -0.21879866E-03
    2    4    0.10265670E-02  0.59014729E-04
    3    4    0.19315709E-03  0.23070201E-04
    4    4   -0.26749884E-02 -0.50104905E-10
    5    4   -0.83985281E-03 -0.52333889E-03
    6    4    0.64726633E-03  0.20802633E-03
    7    4    0.55470808E-02  0.77423665E-03
    8    4   -0.43387701E-02 -0.15839895E-02
    1    5    0.25329312E-02 -0.73116765E-03
    2    5    0.19159739E-02 -0.10462784E-02
    3    5    0.86861878E-03 -0.40721125E-03
    4    5   -0.14833260E-02  0.92430767E-03
    5    5   -0.26750234E-02 -0.14461900E-09
    6    5    0.81484638E-03 -0.20484713E-03
    7    5    0.19439151E-02 -0.86477926E-03
    8    5    0.15171536E-02 -0.31894873E-03
    1    6   -0.47750348E-03  0.16592955E-04
    2    6    0.11526042E-02 -0.29865872E-03
    3    6   -0.32917053E-03  0.64019723E-04
    4    6    0.28779113E-02 -0.92493726E-03
    5    6   -0.91450667E-04 -0.22990237E-04
    6    6    0.68878464E-03  0.15173624E-09
    7    6   -0.19195315E-03  0.33401900E-04
    8    6   -0.12608311E-02 -0.49296718E-04
    1    7   -0.26013609E-03 -0.36009042E-04
    2    7   -0.85134102E-02  0.69328327E-03
    3    7   -0.30225519E-02  0.59869797E-04
    4    7   -0.39344564E-02  0.54915372E-03
    5    7   -0.29634196E-02 -0.13183203E-02
    6    7    0.13684713E-02  0.23812830E-03
    7    7   -0.26751057E-02 -0.57823888E-10
    8    7   -0.12123021E-02 -0.26012218E-03
    1    8   -0.10254879E-02  0.75833571E-04
    2    8   -0.92218343E-02  0.27782369E-02
    3    8   -0.36527609E-02  0.85977563E-03
    4    8   -0.43388448E-02  0.15840165E-02
    5    8   -0.98163666E-03 -0.20636817E-03
    6    8    0.41241170E-02 -0.16124705E-03
    7    8    0.15678475E-02 -0.33641134E-03
    8    8   -0.26751066E-02 -0.14369760E-09

   -3    1    0
    1    1   -0.44009898E-02 -0.63958085E-10
    2    1    0.15119836E-01 -0.33621207E-02
    3    1   -0.10258168E-02  0.16276282E-03
    4    1    0.32748211E-02 -0.92833511E-03
    5    1   -0.63957357E-03 -0.18462225E-03
    6    1   -0.73721435E-02 -0.25617751E-03
    7    1    0.13439910E-03 -0.18603880E-04
    8    1   -0.32704696E-02 -0.24184659E-03
    1    2    0.20931720E-03  0.46544813E-04
    2    2   -0.11272933E-02 -0.12834822E-09
    3    2    0.47757100E-03  0.29383604E-04
    4    2   -0.26210702E-03  0.15067804E-04
    5    2   -0.24398820E-02 -0.13323756E-02
    6    2   -0.58903579E-03 -0.15262902E-03
    7    2   -0.79938391E-03 -0.65097390E-04
    8    2   -0.10227397E-01 -0.30811807E-02
    1    3   -0.53499397E-02 -0.84885750E-03
    2    3   -0.10326617E-01  0.63536991E-03
    3    3   -0.44006422E-02  0.76023059E-09
    4    3    0.18711985E-02 -0.22349131E-03
    5    3    0.49416350E-02  0.23166544E-02
    6    3    0.25294195E-02  0.49194256E-03
    7    3    0.66538762E-03  0.13179798E-04
    8    3    0.34776966E-02  0.81856949E-03
    1    4   -0.29523771E-02 -0.83692965E-03
    2    4   -0.60949725E-01 -0.35038673E-02
    3    4    0.40988897E-02  0.48956248E-03
    4    4   -0.46739344E-02  0.71496351E-10
    5    4    0.23893145E-02  0.14888581E-02
    6    4    0.15085071E-01  0.48482185E-02
    7    4   -0.37711619E-03 -0.52636027E-04
    8    4   -0.30467292E-02 -0.11122938E-02
    1    5   -0.59936785E-02  0.17301632E-02
    2    5    0.19159510E-02 -0.10462663E-02
    3    5   -0.62235317E-02  0.29176115E-02
    4    5   -0.15995458E-02  0.99672724E-03
    5    5   -0.78613597E-02 -0.40060782E-09
    6    5   -0.24990559E-02  0.62824641E-03
    7    5   -0.12323268E-02  0.54821889E-03
    8    5   -0.21035334E-02  0.44222268E-03
    1    6    0.21819412E-02 -0.75821078E-04
    2    6    0.89205692E-02 -0.23114661E-02
    3    6   -0.27028164E-02  0.52566651E-03
    4    6   -0.32405735E-02  0.10414936E-02
    5    6    0.64560951E-03  0.16230222E-03
    6    6   -0.11274917E-02 -0.56727165E-10
    7    6   -0.13367202E-03  0.23260481E-04
    8    6   -0.35788833E-02 -0.13992964E-03
    1    7   -0.11212145E-02 -0.15520302E-03
    2    7    0.15438015E-01 -0.12571839E-02
    3    7    0.63531468E-02 -0.12584037E-03
    4    7    0.63340235E-02 -0.88407370E-03
    5    7    0.11101461E-01  0.49386466E-02
    6    7    0.63797817E-02  0.11101487E-02
    7    7   -0.46744317E-02 -0.27375508E-10
    8    7    0.82485450E-02  0.17698818E-02
    1    8    0.12411107E-01 -0.91778286E-03
    2    8   -0.13110532E+00  0.39497750E-01
    3    8    0.82399816E-02 -0.19395004E-02
    4    8   -0.59695997E-02  0.21793685E-02
    5    8    0.56550199E-02  0.11888461E-02
    6    8    0.17841133E-01 -0.69756334E-03
    7    8   -0.64503553E-02  0.13840457E-02
    8    8   -0.78604758E-02 -0.10872830E-09

   -3    1    1
    1    1    0.26011116E-01  0.30147139E-09
    2    1   -0.83379450E-02  0.18540669E-02
    3    1   -0.87530330E-02  0.13888134E-02
    4    1   -0.14083178E-01  0.39922505E-02
    5    1   -0.19036351E-01 -0.54951203E-02
    6    1    0.64717453E-02  0.22488946E-03
    7    1    0.35133859E-02 -0.48633733E-03
    8    1   -0.39587039E-02 -0.29274044E-03
    1    2   -0.25159447E-02 -0.55945810E-03
    2    2    0.11980253E-01  0.25120709E-09
    3    2    0.73620712E-02  0.45296901E-03
    4    2    0.18815092E-02 -0.10816405E-03
    5    2    0.47900306E-02  0.26157499E-02
    6    2   -0.53930944E-02 -0.13974397E-02
    7    2    0.66328840E-03  0.54014482E-04
    8    2   -0.59732654E-02 -0.17995499E-02
    1    3    0.25338744E-02  0.40204178E-03
    2    3    0.27747410E-02 -0.17072245E-03
    3    3    0.26010589E-01 -0.48940158E-09
    4    3    0.39416426E-02 -0.47078046E-03
    5    3    0.23764297E-03  0.11140764E-03
    6    3    0.35075927E-02  0.68218609E-03
    7    3    0.62371745E-02  0.12354367E-03
    8    3    0.75913020E-03  0.17868174E-03
    1    4   -0.15965530E-01 -0.45258529E-02
    2    4    0.12886683E-01  0.74082786E-03
    3    4    0.56977141E-01  0.68052206E-02
    4    4    0.26010609E-01  0.29644051E-10
    5    4    0.35191432E-01  0.21928900E-01
    6    4   -0.64967322E-02 -0.20879977E-02
    7    4    0.57230037E-02  0.79879185E-03
    8    4    0.69913871E-02  0.25524014E-02
    1    5   -0.12958827E-02  0.37407581E-03
    2    5   -0.23585726E-03  0.12879756E-03
    3    5    0.23770145E-03 -0.11143516E-03
    4    5    0.93854466E-03 -0.58483700E-03
    5    5    0.26010589E-01  0.47285698E-09
    6    5    0.81487305E-03 -0.20485373E-03
    7    5   -0.56999345E-02  0.25356992E-02
    8    5   -0.21035043E-02  0.44221650E-03
    1    6    0.10340634E-01 -0.35933044E-03
    2    6    0.89205362E-02 -0.23114588E-02
    3    6   -0.15204958E-01  0.29571876E-02
    4    6   -0.11140871E-01  0.35805856E-02
    5    6   -0.80663409E-02 -0.20278264E-02
    6    6    0.11982366E-01  0.15320741E-09
    7    6   -0.27387337E-02  0.47656839E-03
    8    6    0.39664811E-02  0.15508414E-03
    1    7    0.35133929E-02  0.48633785E-03
    2    7    0.27440631E-02 -0.22346072E-03
    3    7    0.63537816E-02 -0.12585490E-03
    4    7    0.19326930E-02 -0.26975676E-03
    5    7   -0.58067272E-02 -0.25832065E-02
    6    7   -0.72673835E-02 -0.12646008E-02
    7    7    0.26011116E-01 -0.94008922E-10
    8    7   -0.38811740E-02 -0.83277939E-03
    1    8   -0.57227699E-01  0.42319025E-02
    2    8   -0.92218078E-02  0.27782297E-02
    3    8    0.79508133E-01 -0.18714372E-01
    4    8    0.36724698E-01 -0.13407381E-01
    5    8    0.92501871E-01  0.19446529E-01
    6    8    0.17841146E-01 -0.69756382E-03
    7    8   -0.56106895E-01  0.12038797E-01
    8    8    0.26011120E-01 -0.56557234E-09

   -3    1    2
    1    1   -0.46744361E-02  0.26799701E-09
    2    1    0.67497246E-03 -0.15009034E-03
    3    1    0.76193564E-02 -0.12089379E-02
    4    1    0.32745221E-02 -0.92824978E-03
    5    1   -0.61057396E-02 -0.17625113E-02
    6    1    0.13881988E-02  0.48239319E-04
    7    1   -0.11212135E-02  0.15520263E-03
    8    1    0.84133205E-02  0.62215230E-03
    1    2   -0.34875988E-02 -0.77551984E-03
    2    2   -0.11272676E-02  0.43860963E-09
    3    2   -0.64628499E-02 -0.39764227E-03
    4    2    0.35284054E-02 -0.20284021E-03
    5    2    0.12195805E-02  0.66599123E-03
    6    2   -0.53930939E-02 -0.13974399E-02
    7    2   -0.35609893E-02 -0.28998641E-03
    8    2    0.74670247E-03  0.22495717E-03
    1    3   -0.27083683E-02 -0.42972798E-03
    2    3    0.13520237E-03 -0.83185676E-05
    3    3   -0.46740201E-02 -0.42523745E-09
    4    3    0.27603385E-02 -0.32968829E-03
    5    3   -0.11227796E-02 -0.52636259E-03
    6    3   -0.65345353E-03 -0.12708915E-03
    7    3    0.62382583E-02  0.12356462E-03
    8    3    0.72447394E-02  0.17052440E-02
    1    4   -0.29528032E-02 -0.83704916E-03
    2    4   -0.39151245E-02 -0.22507171E-03
    3    4   -0.11783126E-01 -0.14073501E-02
    4    4   -0.44006195E-02 -0.63780133E-09
    5    4    0.10071755E-01  0.62760312E-02
    6    4   -0.71733347E-03 -0.23054501E-03
    7    4    0.13431235E-01  0.18746707E-02
    8    4   -0.58600919E-02 -0.21393906E-02
    1    5    0.20441601E-02 -0.59007653E-03
    2    5   -0.43740647E-03  0.23886009E-03
    3    5    0.13512287E-02 -0.63346042E-03
    4    5   -0.22805420E-03  0.14210803E-03
    5    5   -0.78613114E-02  0.53060979E-09
    6    5    0.12412509E-02 -0.31204238E-03
    7    5    0.24087597E-02 -0.10715721E-02
    8    5    0.15171487E-02 -0.31894798E-03
    1    6   -0.27782146E-02  0.96541272E-04
    2    6    0.11526042E-02 -0.29865873E-03
    3    6    0.83859518E-02 -0.16309710E-02
    4    6    0.49155602E-02 -0.15798207E-02
    5    6   -0.82852845E-02 -0.20828664E-02
    6    6   -0.11274890E-02 -0.20771594E-10
    7    6    0.10193692E-01 -0.17738090E-02
    8    6    0.39664838E-02  0.15508416E-03
    1    7    0.13439688E-03  0.18603760E-04
    2    7    0.33424190E-03 -0.27218817E-04
    3    7   -0.30223230E-02  0.59864932E-04
    4    7   -0.11792344E-02  0.16459236E-03
    5    7   -0.18102767E-01 -0.80532819E-02
    6    7   -0.47071642E-03 -0.81909455E-04
    7    7   -0.44009916E-02 -0.13063667E-09
    8    7   -0.32064104E-02 -0.68799624E-03
    1    8   -0.65791863E-02  0.48652073E-03
    2    8   -0.37799180E-03  0.11387643E-03
    3    8   -0.77194902E-02  0.18169908E-02
    4    8    0.63904976E-03 -0.23330289E-03
    5    8    0.92500658E-01  0.19446280E-01
    6    8    0.41241281E-02 -0.16124769E-03
    7    8    0.12168010E-01 -0.26108765E-02
    8    8   -0.78604819E-02 -0.20232636E-09

   -3    1    3
    1    1   -0.26751054E-02  0.11086557E-09
    2    1    0.12493275E-02 -0.27780659E-03
    3    1   -0.11590461E-02  0.18390209E-03
    4    1    0.66522612E-03 -0.18857599E-03
    5    1    0.11673643E-01  0.33697679E-02
    6    1   -0.62362948E-04 -0.21672669E-05
    7    1   -0.26014392E-03  0.36010298E-04
    8    1   -0.12365150E-02 -0.91438295E-04
    1    2    0.64962530E-03  0.14445409E-03
    2    2    0.68849310E-03  0.20531059E-10
    3    2   -0.13869477E-02 -0.85335506E-04
    4    2   -0.21794666E-02  0.12529266E-03
    5    2    0.12195006E-02  0.66594782E-03
    6    2   -0.58904911E-03 -0.15263254E-03
    7    2   -0.25689040E-02 -0.20919674E-03
    8    2   -0.59732707E-02 -0.17995511E-02
    1    3   -0.37600884E-03 -0.59660122E-04
    2    3    0.19418730E-03 -0.11948092E-04
    3    3   -0.26750237E-02 -0.13969523E-09
    4    3    0.10209870E-02 -0.12194426E-03
    5    3   -0.62390396E-02 -0.29248818E-02
    6    3    0.78750106E-03  0.15315993E-03
    7    3    0.66555657E-03  0.13182828E-04
    8    3   -0.60024039E-02 -0.14128284E-02
    1    4   -0.77164355E-03 -0.21874239E-03
    2    4    0.26828663E-03  0.15423129E-04
    3    4    0.26260708E-02  0.31365171E-03
    4    4    0.68849129E-03  0.17571042E-09
    5    4   -0.23779338E-01 -0.14817664E-01
    6    4   -0.26211112E-02 -0.84240378E-03
    7    4   -0.62742201E-02 -0.87572717E-03
    8    4    0.85349326E-03  0.31159183E-03
    1    5   -0.83500411E-03  0.24103619E-03
    2    5   -0.43743529E-03  0.23887557E-03
    3    5   -0.37227130E-03  0.17452188E-03
    4    5   -0.26519183E-03  0.16524946E-03
    5    5   -0.26749858E-02  0.34483878E-10
    6    5    0.64967270E-03 -0.16332362E-03
    7    5   -0.11693788E-02  0.52021527E-03
    8    5    0.19048335E-02 -0.40045035E-03
    1    6   -0.13559944E-03  0.47120980E-05
    2    6   -0.45765547E-04  0.11858631E-04
    3    6   -0.67850682E-03  0.13196161E-03
    4    6   -0.26210949E-02  0.84239849E-03
    5    6   -0.80664164E-02 -0.20278450E-02
    6    6    0.68878570E-03 -0.50704742E-10
    7    6    0.21509336E-02 -0.37428477E-03
    8    6   -0.35788769E-02 -0.13992899E-03
    1    7   -0.95052943E-03 -0.13157598E-03
    2    7    0.12756157E-02 -0.10387901E-03
    3    7    0.12796163E-02 -0.25346221E-04
    4    7    0.19277639E-02 -0.26906867E-03
    5    7   -0.60823243E-03 -0.27058076E-03
    6    7   -0.26483294E-03 -0.46083714E-04
    7    7    0.68878464E-03 -0.49477179E-10
    8    7   -0.25868752E-02 -0.55506324E-03
    1    8    0.15991709E-02 -0.11825637E-03
    2    8    0.20371674E-02 -0.61373204E-03
    3    8   -0.38423811E-03  0.90440869E-04
    4    8    0.64907590E-03 -0.23696324E-03
    5    8    0.56547853E-02  0.11887978E-02
    6    8   -0.16023082E-02  0.62647986E-04
    7    8   -0.10054086E-02  0.21572964E-03
    8    8   -0.26751047E-02  0.46014449E-10

   -3    2   -2
    1    1   -0.72340530E-03  0.87307222E-11
    2    1    0.47118813E-03 -0.10477567E-03
    3    1    0.11998055E-02 -0.19036907E-03
    4    1    0.64447615E-03 -0.18269379E-03
    5    1    0.20443119E-02  0.59012057E-03
    6    1    0.20687315E-02  0.71887274E-04
    7    1    0.49366272E-03 -0.68334718E-04
    8    1   -0.31148890E-03 -0.23034000E-04
    1    2    0.47119019E-03  0.10477607E-03
    2    2   -0.72352767E-03 -0.47466208E-10
    3    2    0.49746907E-03  0.30607890E-04
    4    2    0.31195056E-03 -0.17933341E-04
    5    2   -0.11888693E-03 -0.64922067E-04
    6    2    0.16957124E-02  0.43938722E-03
    7    2    0.33424114E-03  0.27218750E-04
    8    2    0.33012545E-02  0.99456011E-03
    1    3    0.46704380E-04  0.74101499E-05
    2    3    0.26822601E-03 -0.16503462E-04
    3    3   -0.72353144E-03  0.99231974E-10
    4    3    0.19165070E-03 -0.22890042E-04
    5    3    0.14519582E-02  0.68068261E-03
    6    3   -0.32919033E-03 -0.64023723E-04
    7    3   -0.36835171E-03 -0.72960744E-05
    8    3   -0.22309585E-03 -0.52511410E-04
    1    4    0.46421324E-03  0.13159349E-03
    2    4   -0.19949560E-02 -0.11468549E-03
    3    4   -0.20553002E-02 -0.24548044E-03
    4    4   -0.21998844E-02  0.96011236E-11
    5    4    0.35750394E-03  0.22277176E-03
    6    4    0.35076076E-03  0.11273164E-03
    7    4   -0.17348950E-02 -0.24214899E-03
    8    4   -0.81654342E-03 -0.29810201E-03
    1    5   -0.12296261E-02  0.35494987E-03
    2    5   -0.41993842E-03  0.22932106E-03
    3    5   -0.10371507E-02  0.48621933E-03
    4    5   -0.16386375E-03  0.10210848E-03
    5    5   -0.21998983E-02  0.93667117E-11
    6    5    0.32521935E-03 -0.81758075E-04
    7    5   -0.14074379E-02  0.62611935E-03
    8    5    0.46260940E-04 -0.97254731E-05
    1    6    0.20687278E-02 -0.71886972E-04
    2    6    0.16957122E-02 -0.43938703E-03
    3    6    0.98633247E-03 -0.19183026E-03
    4    6   -0.82741705E-03  0.26592516E-03
    5    6   -0.66996920E-03 -0.16842583E-03
    6    6   -0.72340456E-03  0.10469809E-09
    7    6    0.20393346E-02 -0.35486540E-03
    8    6   -0.19962705E-02 -0.78051449E-04
    1    7   -0.14781067E-02 -0.20460571E-03
    2    7    0.68918046E-03 -0.56122977E-04
    3    7    0.86908956E-03 -0.17214547E-04
    4    7    0.65920320E-02 -0.92008624E-03
    5    7    0.19440979E-02  0.86486042E-03
    6    7   -0.18981700E-03 -0.33030175E-04
    7    7   -0.21998156E-02  0.51943804E-10
    8    7    0.14589920E-02  0.31305425E-03
    1    8    0.19923539E-02 -0.14733145E-03
    2    8   -0.21968680E-03  0.66184550E-04
    3    8    0.35862791E-03 -0.84412751E-04
    4    8   -0.81639226E-03  0.29804673E-03
    5    8    0.26908902E-02  0.56570188E-03
    6    8   -0.61444394E-03  0.24023750E-04
    7    8   -0.11199458E-02  0.24030559E-03
    8    8   -0.21998173E-02 -0.13124818E-09

   -3    2   -1
    1    1    0.21345327E-02 -0.56644356E-10
    2    1   -0.78290231E-03  0.17409014E-03
    3    1   -0.14197070E-03  0.22526108E-04
    4    1   -0.25309138E-02  0.71745468E-03
    5    1    0.66370210E-03  0.19158737E-03
    6    1   -0.19471695E-03 -0.67662887E-05
    7    1    0.11346174E-02 -0.15705819E-03
    8    1   -0.26808437E-03 -0.19824301E-04
    1    2    0.32735267E-03  0.72791971E-04
    2    2   -0.97450146E-03  0.37280536E-10
    3    2   -0.20660012E-02 -0.12711576E-03
    4    2   -0.14898675E-02  0.85649144E-04
    5    2    0.36967442E-03  0.20187251E-03
    6    2   -0.45764373E-04 -0.11858286E-04
    7    2    0.48110368E-03  0.39178369E-04
    8    2    0.33012575E-02  0.99456110E-03
    1    3    0.15311408E-02  0.24294121E-03
    2    3    0.32728794E-02 -0.20137130E-03
    3    3    0.21346588E-02  0.18394886E-09
    4    3    0.17354887E-02 -0.20728271E-03
    5    3   -0.12264965E-03 -0.57498680E-04
    6    3   -0.82477723E-03 -0.16040970E-03
    7    3   -0.69084595E-03 -0.13683845E-04
    8    3   -0.81822227E-03 -0.19259055E-03
    1    4    0.37988336E-03  0.10768770E-03
    2    4    0.10266414E-02  0.59019047E-04
    3    4   -0.61028692E-03 -0.72891323E-04
    4    4    0.33272836E-02 -0.15091496E-09
    5    4    0.13610004E-02  0.84808254E-03
    6    4   -0.35717609E-02 -0.11479347E-02
    7    4   -0.14236159E-03 -0.19870143E-04
    8    4    0.19987487E-02  0.72969917E-03
    1    5    0.87295595E-03 -0.25199178E-03
    2    5    0.45242625E-02 -0.24706181E-02
    3    5   -0.12264935E-03  0.57498145E-04
    4    5    0.11793113E-02 -0.73486657E-03
    5    5    0.21346550E-02 -0.19180590E-09
    6    5    0.20796227E-03 -0.52280498E-04
    7    5    0.63128387E-03 -0.28083604E-03
    8    5   -0.39330166E-02  0.82683230E-03
    1    6   -0.26865028E-03  0.93354557E-05
    2    6    0.11526083E-02 -0.29865981E-03
    3    6   -0.47363958E-03  0.92117345E-04
    4    6    0.25045091E-02 -0.80492873E-03
    5    6   -0.66996138E-03 -0.16842403E-03
    6    6   -0.97455681E-03  0.13321280E-09
    7    6   -0.11284771E-02  0.19636695E-03
    8    6   -0.95886115E-03 -0.37490149E-04
    1    7    0.12281866E-02  0.17001065E-03
    2    7   -0.82902033E-02  0.67510703E-03
    3    7    0.46179663E-02 -0.91470793E-04
    4    7   -0.39344675E-02  0.54915533E-03
    5    7   -0.42201359E-02 -0.18773891E-02
    6    7    0.13684746E-02  0.23812905E-03
    7    7    0.33273503E-02  0.30527636E-10
    8    7   -0.17090634E-02 -0.36671192E-03
    1    8    0.12583647E-02 -0.93054172E-04
    2    8   -0.72156058E-03  0.21738217E-03
    3    8   -0.36519037E-02  0.85957379E-03
    4    8    0.28396041E-02 -0.10366774E-02
    5    8   -0.27435161E-02 -0.57676520E-03
    6    8   -0.75944628E-02  0.29693339E-03
    7    8    0.60122958E-03 -0.12900534E-03
    8    8    0.21345344E-02  0.14349966E-09

   -3    2    0
    1    1   -0.78604815E-02 -0.55933536E-10
    2    1   -0.81193427E-02  0.18054565E-02
    3    1   -0.37607256E-03  0.59670237E-04
    4    1    0.22268777E-02 -0.63126771E-03
    5    1    0.65323967E-03  0.18856730E-03
    6    1   -0.35126318E-03 -0.12205733E-04
    7    1   -0.15883889E-02  0.21987124E-03
    8    1    0.11024647E-02  0.81525372E-04
    1    2    0.82053620E-03  0.18245846E-03
    2    2   -0.11272761E-02  0.99733138E-10
    3    2    0.19418615E-03  0.11947791E-04
    4    2    0.17448915E-02 -0.10030980E-03
    5    2   -0.11888359E-03 -0.64920339E-04
    6    2    0.38904859E-02  0.10080894E-02
    7    2   -0.68867324E-03 -0.56081708E-04
    8    2    0.25242919E-02  0.76048673E-03
    1    3    0.25340341E-02  0.40206655E-03
    2    3    0.27746586E-02 -0.17071736E-03
    3    3   -0.78613104E-02 -0.32022114E-09
    4    3   -0.83770760E-02  0.10005386E-02
    5    3   -0.62235230E-02 -0.29176081E-02
    6    3    0.35075712E-02  0.68218185E-03
    7    3    0.13485278E-02  0.26711170E-04
    8    3   -0.18544105E-02 -0.43648549E-03
    1    4    0.59326336E-02  0.16817624E-02
    2    4    0.27972699E-01  0.16080905E-02
    3    4    0.65491127E-02  0.78221086E-03
    4    4   -0.46740194E-02 -0.80705467E-10
    5    4   -0.55977843E-02 -0.34881574E-02
    6    4    0.15085092E-01  0.48482248E-02
    7    4   -0.27765641E-02 -0.38754044E-03
    8    4   -0.12670565E-02 -0.46257438E-03
    1    5   -0.63940703E-03  0.18457407E-03
    2    5   -0.41993000E-03  0.22931627E-03
    3    5    0.49415982E-02 -0.23166374E-02
    4    5   -0.29894286E-03  0.18628011E-03
    5    5   -0.44006146E-02  0.49067762E-09
    6    5    0.20795685E-03 -0.52278967E-04
    7    5   -0.60801491E-03  0.27048467E-03
    8    5    0.54520251E-02 -0.11461711E-02
    1    6   -0.32774133E-02  0.11388789E-03
    2    6   -0.19560071E-01  0.50683373E-02
    3    6    0.78746833E-03 -0.15315359E-03
    4    6   -0.32406181E-02  0.10415080E-02
    5    6   -0.77804695E-03 -0.19559583E-03
    6    6   -0.11274913E-02  0.36332921E-09
    7    6    0.41518866E-03 -0.72247056E-04
    8    6   -0.11046216E-02 -0.43189343E-04
    1    7   -0.27883257E-02 -0.38597147E-03
    2    7   -0.79938524E-03  0.65097144E-04
    3    7   -0.12147886E-01  0.24062114E-03
    4    7   -0.21082869E-02  0.29426530E-03
    5    7   -0.58058079E-02 -0.25827986E-02
    6    7   -0.34627424E-03 -0.60255408E-04
    7    7   -0.46744379E-02  0.39383215E-10
    8    7   -0.18423982E-02 -0.39532140E-03
    1    8    0.22892507E-01 -0.16928668E-02
    2    8   -0.72153778E-03  0.21737639E-03
    3    8    0.15423525E-01 -0.36303424E-02
    4    8   -0.18612060E-01  0.67948543E-02
    5    8   -0.18627881E-01 -0.39161126E-02
    6    8    0.49324838E-01 -0.19285347E-02
    7    8   -0.40354245E-02  0.86587679E-03
    8    8   -0.44009928E-02  0.21162633E-09

   -3    2    1
    1    1   -0.46744320E-02  0.15101082E-09
    2    1    0.67498066E-03 -0.15009175E-03
    3    1    0.31149746E-02 -0.49424192E-03
    4    1    0.22278302E-02 -0.63153727E-03
    5    1    0.37561860E-01  0.10842781E-01
    6    1    0.13881911E-02  0.48239122E-04
    7    1   -0.27883204E-02  0.38597077E-03
    8    1   -0.18792055E-02 -0.13896465E-03
    1    2   -0.34876027E-02 -0.77552029E-03
    2    2   -0.11272895E-02  0.18782380E-09
    3    2    0.35163001E-03  0.21634935E-04
    4    2    0.18814843E-02 -0.10816286E-03
    5    2   -0.30913747E-03 -0.16881465E-03
    6    2   -0.53930935E-02 -0.13974396E-02
    7    2   -0.93745475E-04 -0.76337652E-05
    8    2   -0.18241121E-02 -0.54954555E-03
    1    3   -0.99071118E-03 -0.15719299E-03
    2    3   -0.42040718E-03  0.25866457E-04
    3    3   -0.46739321E-02 -0.12423626E-09
    4    3    0.98252162E-03 -0.11735011E-03
    5    3    0.10245640E-02  0.48031899E-03
    6    3    0.92557732E-04  0.18001577E-04
    7    3   -0.74412794E-02 -0.14739388E-03
    8    3    0.75873302E-03  0.17858819E-03
    1    4    0.59334267E-02  0.16819880E-02
    2    4    0.26404532E-02  0.15179360E-03
    3    4   -0.41172542E-01 -0.49175533E-02
    4    4   -0.78613667E-02  0.64599495E-10
    5    4   -0.48700313E-01 -0.30346715E-01
    6    4   -0.43812746E-02 -0.14081057E-02
    7    4    0.57231003E-02  0.79880519E-03
    8    4   -0.58611070E-02 -0.21397611E-02
    1    5    0.66387383E-03 -0.19163652E-03
    2    5    0.18166848E-02 -0.99205866E-03
    3    5   -0.56412504E-04  0.26446261E-04
    4    5   -0.16513810E-03  0.10290243E-03
    5    5   -0.44006384E-02  0.56981627E-10
    6    5    0.32523781E-03 -0.81762418E-04
    7    5    0.83019213E-03 -0.36932314E-03
    8    5   -0.39329991E-02  0.82682857E-03
    1    6   -0.27782091E-02  0.96540935E-04
    2    6    0.11526038E-02 -0.29865868E-03
    3    6    0.81644332E-02 -0.15878868E-02
    4    6   -0.46030027E-03  0.14793679E-03
    5    6    0.15022192E-01  0.37764832E-02
    6    6   -0.11274914E-02  0.42731807E-10
    7    6   -0.27387378E-02  0.47656924E-03
    8    6    0.35319312E-02  0.13809383E-03
    1    7   -0.15883888E-02 -0.21987126E-03
    2    7    0.48110686E-03 -0.39178643E-04
    3    7    0.46180424E-02 -0.91472700E-04
    4    7    0.55470575E-02 -0.77423343E-03
    5    7    0.35720491E-01  0.15890783E-01
    6    7   -0.19195191E-03 -0.33401629E-04
    7    7   -0.78604776E-02  0.61845000E-10
    8    7    0.10808695E-02  0.23192097E-03
    1    8   -0.41160430E-02  0.30437545E-03
    2    8   -0.21968580E-03  0.66183921E-04
    3    8   -0.44798186E-02  0.10544456E-02
    4    8    0.63868397E-03 -0.23316980E-03
    5    8   -0.20670850E+00 -0.43456024E-01
    6    8   -0.75944691E-02  0.29693362E-03
    7    8    0.22444175E-01 -0.48158227E-02
    8    8   -0.44009883E-02 -0.72968757E-11

   -3    2    2
    1    1    0.33273509E-02  0.12943113E-09
    2    1    0.65384822E-03 -0.14539282E-03
    3    1   -0.11591257E-02  0.18391459E-03
    4    1   -0.25311118E-02  0.71751086E-03
    5    1   -0.61051257E-02 -0.17623337E-02
    6    1   -0.19255204E-03 -0.66911070E-05
    7    1    0.12281821E-02 -0.17001001E-03
    8    1   -0.17431996E-02 -0.12890699E-03
    1    2   -0.91813665E-04 -0.20416054E-04
    2    2   -0.97449968E-03  0.13840218E-09
    3    2   -0.13868579E-02 -0.85329562E-04
    4    2   -0.11040127E-02  0.63467236E-04
    5    2    0.56829372E-02  0.31033500E-02
    6    2    0.38904904E-02  0.10080902E-02
    7    2   -0.35610002E-02 -0.28998755E-03
    8    2   -0.18241119E-02 -0.54954529E-03
    1    3    0.27157251E-02  0.43089529E-03
    2    3    0.11433152E-02 -0.70345138E-04
    3    3    0.33272873E-02  0.10710811E-10
    4    3   -0.41818962E-03  0.49947764E-04
    5    3    0.25490424E-02  0.11949993E-02
    6    3    0.67810179E-03  0.13188292E-03
    7    3    0.13485883E-02  0.26712466E-04
    8    3   -0.13129892E-02 -0.30904742E-03
    1    4    0.37977759E-03  0.10765803E-03
    2    4    0.31192568E-03  0.17932041E-04
    3    4    0.44515454E-02  0.53168230E-03
    4    4    0.21346507E-02  0.47443348E-10
    5    4    0.10559922E-01  0.65802239E-02
    6    4   -0.21844849E-03 -0.70207795E-04
    7    4   -0.10031717E-01 -0.14001822E-02
    8    4    0.24764778E-02  0.90410798E-03
    1    5   -0.14800505E-02  0.42723802E-03
    2    5    0.13294192E-02 -0.72597168E-03
    3    5   -0.45126571E-03  0.21155455E-03
    4    5    0.17567533E-02 -0.10946887E-02
    5    5    0.21346597E-02  0.16476646E-10
    6    5   -0.97451986E-03  0.24498794E-03
    7    5   -0.11693581E-02  0.52020589E-03
    8    5    0.46272416E-04 -0.97275655E-05
    1    6    0.42117524E-03 -0.14635584E-04
    2    6    0.16957130E-02 -0.43938726E-03
    3    6   -0.67855244E-03  0.13197045E-03
    4    6    0.74804361E-03 -0.24041536E-03
    5    6    0.15022421E-01  0.37765390E-02
    6    6   -0.97455662E-03 -0.10176424E-09
    7    6   -0.32308418E-02  0.56220021E-03
    8    6   -0.11046276E-02 -0.43189482E-04
    1    7    0.11346184E-02  0.15705852E-03
    2    7   -0.10015127E-02  0.81557459E-04
    3    7    0.86892651E-03 -0.17211481E-04
    4    7   -0.17348964E-02  0.24214904E-03
    5    7    0.62119298E-03  0.27634705E-03
    6    7    0.20393316E-02  0.35486500E-03
    7    7    0.21345343E-02 -0.96330558E-10
    8    7   -0.26283192E-03 -0.56395815E-04
    1    8    0.61323087E-03 -0.45347445E-04
    2    8   -0.83215477E-03  0.25070103E-03
    3    8   -0.22333499E-03  0.52568008E-04
    4    8    0.34608142E-03 -0.12634684E-03
    5    8   -0.18628054E-01 -0.39161482E-02
    6    8   -0.61443879E-03  0.24023814E-04
    7    8    0.12337079E-02 -0.26471519E-03
    8    8    0.21345325E-02  0.10799254E-09

   -3    2    3
    1    1   -0.21998178E-02  0.20898373E-10
    2    1   -0.98087361E-03  0.21811191E-03
    3    1   -0.12186430E-02  0.19335823E-03
    4    1    0.64441618E-03 -0.18267682E-03
    5    1   -0.44376823E-02 -0.12810020E-02
    6    1   -0.49806950E-03 -0.17307629E-04
    7    1   -0.14781053E-02  0.20460540E-03
    8    1    0.14881362E-02  0.11004555E-03
    1    2   -0.67448063E-03 -0.14998092E-03
    2    2   -0.72353527E-03  0.14765348E-09
    3    2    0.19267916E-03  0.11855105E-04
    4    2    0.26827789E-03 -0.15422554E-04
    5    2   -0.30920132E-03 -0.16884856E-03
    6    2   -0.45767513E-04 -0.11859185E-04
    7    2    0.83780526E-03  0.68226138E-04
    8    2    0.25242857E-02  0.76048492E-03
    1    3   -0.14195368E-03 -0.22523373E-04
    2    3   -0.20660022E-02  0.12711581E-03
    3    3   -0.21998996E-02 -0.60862256E-10
    4    3   -0.19841367E-02  0.23698068E-03
    5    3    0.22862400E-02  0.10717966E-02
    6    3   -0.47364995E-03 -0.92119452E-04
    7    3   -0.69066562E-03 -0.13680426E-04
    8    3   -0.38432201E-03 -0.90460591E-04
    1    4    0.46439458E-03  0.13164508E-03
    2    4    0.49756988E-03  0.28604397E-04
    3    4    0.31023812E-03  0.37053925E-04
    4    4   -0.72352448E-03 -0.32885614E-10
    5    4   -0.87279072E-03 -0.54386324E-03
    6    4   -0.45954394E-03 -0.14769382E-03
    7    4    0.19278109E-02  0.26907513E-03
    8    4   -0.12022149E-02 -0.43890216E-03
    1    5    0.96541378E-03 -0.27868070E-03
    2    5    0.18166840E-02 -0.99205819E-03
    3    5    0.13714930E-02 -0.64296050E-03
    4    5   -0.42297238E-03  0.26356733E-03
    5    5   -0.21998845E-02  0.10129102E-09
    6    5   -0.97449292E-03  0.24498138E-03
    7    5    0.91808166E-03 -0.40842208E-03
    8    5   -0.17142404E-02  0.36038219E-03
    1    6   -0.11447477E-02  0.39779261E-04
    2    6   -0.11759616E-02  0.30471119E-03
    3    6   -0.65756689E-03  0.12788914E-03
    4    6   -0.45955095E-03  0.14769598E-03
    5    6   -0.77801824E-03 -0.19558872E-03
    6    6   -0.72340566E-03  0.26401471E-10
    7    6   -0.26483850E-03  0.46084656E-04
    8    6   -0.95885548E-03 -0.37489859E-04
    1    7    0.49366198E-03  0.68334794E-04
    2    7    0.66760553E-03 -0.54365996E-04
    3    7   -0.10046342E-02  0.19899497E-04
    4    7   -0.12220387E-02  0.17056678E-03
    5    7    0.63117732E-03  0.28078839E-03
    6    7   -0.49099178E-03 -0.85437726E-04
    7    7   -0.72340495E-03  0.24978908E-11
    8    7   -0.30538381E-03 -0.65525897E-04
    1    8   -0.11423171E-02  0.84472634E-04
    2    8   -0.83215352E-03  0.25070052E-03
    3    8   -0.46985551E-03  0.11059307E-03
    4    8   -0.14470608E-02  0.52828996E-03
    5    8   -0.27434953E-02 -0.57676102E-03
    6    8    0.15112543E-03 -0.59087736E-05
    7    8    0.19533408E-02 -0.41912625E-03
    8    8   -0.21998163E-02 -0.23828696E-10

   -3    3   -3
    1    1    0.37998892E-02  0.99525281E-15
[...]
    2    2   -0.26243170E-03  0.60501991E-10 -0.29146806E-04 -0.28576127E-09  0.29146593E-04 -0.20107385E-09
    3    2   -0.39044710E-03 -0.24023256E-04 -0.33198056E-03 -0.20425687E-04  0.27751112E-03  0.17074701E-04
    4    2   -0.52056972E-04  0.29926796E-05  0.12041327E-02 -0.69222880E-04 -0.21082319E-02  0.12119752E-03
    5    2    0.11495650E-02  0.62775657E-03  0.29552110E-03  0.16137860E-03  0.12318581E-02  0.67269536E-03
    6    2    0.85067670E-03  0.22042432E-03 -0.13744767E-02 -0.35614933E-03  0.17543799E-02  0.45458848E-03
    7    2   -0.13091864E-02 -0.10661268E-03 -0.23289662E-04 -0.18965945E-05 -0.39124430E-03 -0.31860430E-04
    8    2    0.27497758E-03  0.82841738E-04 -0.53459485E-03 -0.16105579E-03 -0.38614474E-03 -0.11633278E-03
    1    3   -0.19167729E-02 -0.30412813E-03 -0.28311272E-02 -0.44920549E-03  0.23121902E-02  0.36686793E-03
    2    3   -0.76632846E-03  0.47149699E-04  0.37128684E-03 -0.22844399E-04 -0.62187626E-03  0.38262295E-04
    3    3   -0.11732834E-02  0.13097920E-09 -0.21964143E-03  0.29644042E-10 -0.21964094E-03  0.19082137E-09
    4    3    0.64175282E-03 -0.76649822E-04  0.73576126E-03 -0.87877598E-04 -0.13869021E-02  0.16564818E-03
    5    3    0.15444992E-03  0.72406795E-04 -0.68324680E-03 -0.32030830E-03 -0.96886598E-03 -0.45420748E-03
    6    3    0.53982697E-03  0.10499036E-03  0.74363791E-03  0.14462896E-03  0.80146976E-03  0.15587650E-03
    7    3   -0.12367557E-02 -0.24496879E-04  0.40602324E-03  0.80423850E-05 -0.77388785E-03 -0.15329277E-04
    8    3    0.20815870E-02  0.48995752E-03  0.51525431E-02  0.12127896E-02 -0.24056348E-02 -0.56623154E-03
    1    4   -0.16144792E-02 -0.45766697E-03  0.13221417E-02  0.37479604E-03  0.12352103E-02  0.35015294E-03
    2    4    0.18227212E-03  0.10478611E-04  0.31824952E-03  0.18295308E-04  0.62771904E-03  0.36086301E-04
    3    4    0.18128808E-02  0.21652632E-03 -0.14028118E-02 -0.16754837E-03  0.23271721E-02  0.27795209E-03
    4    4   -0.26242959E-03 -0.83650922E-10  0.29147109E-04 -0.34122151E-10 -0.29147800E-04 -0.12659478E-10
    5    4   -0.20281402E-02 -0.12637988E-02  0.18279833E-04  0.11390916E-04 -0.78772642E-03 -0.49085769E-03
    6    4   -0.47854969E-03 -0.15380205E-03 -0.85381596E-03 -0.27440937E-03  0.85381647E-03  0.27440954E-03
    7    4   -0.33211626E-02 -0.46355297E-03  0.44447647E-02  0.62038023E-03 -0.50468135E-02 -0.70441122E-03
    8    4    0.11954523E-04  0.43646395E-05 -0.13723849E-03 -0.50102736E-04 -0.73831989E-03 -0.26954387E-03
    1    5    0.51912238E-03 -0.14985229E-03 -0.64372786E-04  0.18582005E-04 -0.73830905E-03  0.21312389E-03
    2    5   -0.11035514E-02  0.60262944E-03  0.66910365E-03 -0.36538560E-03  0.23141815E-03 -0.12637314E-03
    3    5    0.19765845E-03 -0.92663030E-04 -0.11145489E-03  0.52250226E-04 -0.39710404E-03  0.18616380E-03
    4    5   -0.32192159E-03  0.20059976E-03 -0.40042545E-04  0.24951781E-04 -0.69671345E-03  0.43414407E-03
    5    5   -0.11732706E-02 -0.11675243E-09  0.21963651E-03 -0.13377695E-09  0.21963594E-03 -0.14278310E-09
    6    5   -0.38187360E-03  0.96000344E-04 -0.56788286E-03  0.14276156E-03  0.60313543E-03 -0.15162457E-03
    7    5    0.11044012E-02 -0.49130916E-03 -0.67193171E-03  0.29891895E-03  0.40630388E-03 -0.18075033E-03
    8    5   -0.14687508E-02  0.30877364E-03 -0.46598404E-02  0.97963152E-03  0.26755881E-02 -0.56248469E-03
    1    6    0.78388630E-03 -0.27239461E-04 -0.33501182E-02  0.11641456E-03  0.21152111E-02 -0.73502344E-04
    2    6    0.60524906E-03 -0.15683043E-03  0.60525230E-03 -0.15683085E-03 -0.16848996E-02  0.43658500E-03
    3    6    0.52039390E-03 -0.10121064E-03 -0.34850294E-03  0.67779896E-04 -0.73169731E-03  0.14230696E-03
    4    6    0.84784931E-03 -0.27249208E-03  0.33400741E-02 -0.10734729E-02 -0.33400711E-02  0.10734714E-02
    5    6   -0.98671377E-04 -0.24805271E-04  0.17969651E-02  0.45174495E-03 -0.13767978E-02 -0.34611792E-03
    6    6    0.26238782E-03  0.21050741E-09  0.29154641E-04 -0.10165334E-09 -0.29154635E-04 -0.13904255E-09
    7    6   -0.64805757E-03  0.11276908E-03  0.12236673E-02 -0.21293079E-03 -0.15717468E-02  0.27350036E-03
    8    6    0.67991214E-03  0.26583501E-04  0.18482590E-03  0.72261833E-05  0.78797425E-03  0.30808419E-04
    1    7   -0.10281369E-02 -0.14231895E-03 -0.60627796E-03 -0.83923386E-04 -0.96218707E-03 -0.13318977E-03
    2    7   -0.71763938E-03  0.58440308E-04 -0.12248266E-02  0.99743103E-04  0.16737127E-03 -0.13629964E-04
    3    7   -0.61564268E-03  0.12194508E-04 -0.57182760E-03  0.11326692E-04  0.12072023E-02 -0.23911865E-04
    4    7   -0.10720144E-02  0.14962698E-03 -0.13703842E-02  0.19127218E-03  0.13824286E-02 -0.19295311E-03
    5    7    0.12639525E-02  0.56228744E-03  0.37027329E-03  0.16472162E-03 -0.12554555E-02 -0.55850787E-03
    6    7    0.11698827E-02  0.20357212E-03  0.69527047E-03  0.12098475E-03  0.80967106E-03  0.14089101E-03
    7    7    0.26238801E-03 -0.23546380E-10 -0.29154352E-04 -0.25151057E-09  0.29154591E-04 -0.12918833E-09
    8    7   -0.11333453E-03 -0.24318094E-04 -0.87935676E-03 -0.18868270E-03  0.13139301E-02  0.28192851E-03
    1    8   -0.67056925E-03  0.49587786E-04 -0.73696704E-03  0.54497440E-04  0.18664250E-03 -0.13801995E-04
    2    8    0.82412443E-03 -0.24828155E-03 -0.27785434E-03  0.83708472E-04 -0.40723273E-03  0.12268603E-03
    3    8    0.33393773E-03 -0.78601134E-04 -0.30223979E-03  0.71140306E-04  0.18418780E-03 -0.43353433E-04
    4    8   -0.73308431E-04  0.26763331E-04  0.94813680E-03 -0.34614382E-03  0.52223011E-03 -0.19065469E-03
    5    8    0.13921578E-02  0.29267132E-03 -0.20066059E-02 -0.42184596E-03  0.27033248E-02  0.56831599E-03
    6    8    0.51309189E-03 -0.20060987E-04 -0.13131324E-02  0.51341572E-04  0.15706171E-03 -0.61408555E-05
    7    8   -0.21736430E-02  0.46639628E-03  0.16884487E-02 -0.36228873E-03 -0.19514047E-02  0.41871104E-03
    8    8    0.11731893E-02  0.15810521E-10 -0.21961156E-03 -0.16314630E-09 -0.21961146E-03 -0.35984385E-10

    4   -1   -1
    1    1   -0.29154469E-04 -0.23705745E-10  0.26238798E-03 -0.16386115E-09  0.29154616E-04 -0.12010452E-09
    2    1    0.34246878E-02 -0.76152984E-03 -0.86932858E-03  0.19330821E-03 -0.34246875E-02  0.76153024E-03
    3    1    0.17190441E-02 -0.27275520E-03 -0.61750542E-03  0.97977613E-04 -0.61751749E-03  0.97979336E-04
    4    1    0.71714692E-03 -0.20329459E-03 -0.51003903E-03  0.14458385E-03  0.34158872E-03 -0.96831932E-04
    5    1    0.92078723E-03  0.26579871E-03 -0.22957644E-03 -0.66270859E-04 -0.22957924E-03 -0.66271270E-04
    6    1   -0.64808863E-03 -0.22520654E-04 -0.57427177E-03 -0.19955564E-04  0.64808887E-03  0.22520841E-04
    7    1   -0.69731743E-03  0.96525248E-04 -0.93709521E-03  0.12971665E-03 -0.11779831E-02  0.16306135E-03
    8    1    0.36030578E-03  0.26644030E-04 -0.13728282E-02 -0.10151861E-03  0.20778165E-02  0.15365152E-03
    1    2   -0.87544833E-03 -0.19466923E-03  0.49067281E-03  0.10910812E-03  0.87544753E-03  0.19466912E-03
    2    2   -0.29147245E-04  0.98153409E-10 -0.26243037E-03 -0.23705985E-09  0.29147305E-04 -0.14580448E-09
    3    2    0.62756242E-03  0.38612162E-04  0.18222700E-03  0.11211923E-04  0.31817448E-03  0.19576659E-04
    4    2    0.23398731E-02 -0.13451397E-03  0.18227625E-02 -0.10478655E-03 -0.14104589E-02  0.81083999E-04
    5    2    0.48074268E-03  0.26252508E-03 -0.90877813E-03 -0.49626722E-03  0.70899353E-03  0.38716892E-03
    6    2   -0.15034732E-02 -0.38957511E-03 -0.19394554E-02 -0.50254501E-03  0.15034757E-02  0.38957531E-03
    7    2    0.23773583E-02  0.19359841E-03 -0.16828315E-05 -0.13656091E-06 -0.49815220E-03 -0.40566655E-04
    8    2    0.21263743E-02  0.64060777E-03  0.15269652E-03  0.46002781E-04 -0.29486818E-03 -0.88833781E-04
    1    3   -0.17899300E-02 -0.28400223E-03 -0.86791199E-03 -0.13770877E-03  0.14023301E-02  0.22250302E-03
    2    3   -0.21077328E-02  0.12968310E-03 -0.52047461E-04  0.32023517E-05  0.12038669E-02 -0.74071171E-04
    3    3    0.29147441E-04 -0.50011609E-10 -0.26243145E-03  0.85582231E-11 -0.29146452E-04 -0.34115671E-10
    4    3    0.27604164E-03 -0.32969319E-04 -0.38846579E-03  0.46397340E-04 -0.33025405E-03  0.39444945E-04
    5    3    0.12787479E-02  0.59948149E-03  0.21637469E-02  0.10143713E-02  0.68739465E-03  0.32225270E-03
    6    3    0.49060677E-03  0.95417209E-04 -0.23413595E-02 -0.45536735E-03  0.16563476E-05  0.32204723E-06
    7    3    0.24960631E-03  0.49442277E-05  0.11792528E-02  0.23358260E-04 -0.12673170E-02 -0.25102620E-04
    8    3   -0.40819988E-02 -0.96080792E-03 -0.55824778E-02 -0.13139863E-02  0.33898987E-02  0.79790390E-03
    1    4   -0.78554702E-03 -0.22268441E-03 -0.52908099E-03 -0.14998176E-03 -0.72885695E-03 -0.20661383E-03
    2    4   -0.13944575E-02 -0.80164650E-04  0.64525384E-03  0.37094204E-04  0.73976794E-03  0.42527734E-04
    3    4   -0.61864023E-03 -0.73889001E-04 -0.76238722E-03 -0.91057885E-04  0.36935553E-03  0.44114858E-04
    4    4   -0.21963621E-03 -0.73117023E-10 -0.11732714E-02 -0.80684944E-10 -0.21963614E-03 -0.66334105E-10
    5    4    0.52881007E-03  0.32951846E-03  0.31571155E-03  0.19673024E-03 -0.65160244E-03 -0.40603419E-03
    6    4    0.12067449E-02  0.38783785E-03 -0.23766722E-03 -0.76384296E-04 -0.11228872E-02 -0.36088658E-03
    7    4    0.19842719E-02  0.27695579E-03 -0.15382251E-02 -0.21469860E-03  0.15382076E-02  0.21469590E-03
    8    4   -0.16527401E-02 -0.60337898E-03 -0.17354799E-02 -0.63358548E-03  0.59047881E-04  0.21557041E-04
    1    5   -0.25272884E-02  0.72953881E-03 -0.61506712E-03  0.17754831E-03  0.14467700E-02 -0.41763144E-03
    2    5   -0.39174312E-02  0.21392380E-02 -0.15448087E-02  0.84359207E-03  0.34132692E-02 -0.18639244E-02
    3    5    0.80758772E-03 -0.37859959E-03 -0.48297163E-03  0.22641874E-03  0.25079495E-03 -0.11757368E-03
    4    5   -0.35217508E-07  0.21679960E-07 -0.24676515E-03  0.15376719E-03  0.35066811E-07 -0.21891250E-07
    5    5    0.21964069E-03  0.19823584E-09 -0.11732830E-02  0.45013071E-10  0.21964204E-03  0.12908277E-09
    6    5    0.18289310E-02 -0.45978116E-03  0.65522873E-03 -0.16472029E-03 -0.10135729E-02  0.25480541E-03
    7    5   -0.12710588E-03  0.56544679E-04 -0.40345010E-03  0.17948059E-03  0.43912152E-03 -0.19534972E-03
    8    5    0.15954552E-02 -0.33541017E-03  0.29621260E-02 -0.62272342E-03 -0.18529420E-02  0.38954140E-03
    1    6    0.64808936E-03 -0.22520849E-04 -0.57427248E-03  0.19955405E-04 -0.64808968E-03  0.22520696E-04
    2    6    0.20256246E-02 -0.52487276E-03 -0.21399799E-02  0.55450420E-03 -0.20256264E-02  0.52487265E-03
    3    6    0.59866990E-03 -0.11643453E-03 -0.11570865E-02  0.22503993E-03  0.56718502E-03 -0.11031100E-03
    4    6    0.12732116E-03 -0.40920132E-04 -0.51394043E-03  0.16517617E-03 -0.65965199E-04  0.21200987E-04
    5    6   -0.59147643E-03 -0.14869343E-03  0.56038445E-03  0.14087668E-03 -0.11431805E-02 -0.28738806E-03
    6    6    0.29154537E-04 -0.20879681E-09  0.26238791E-03 -0.14674458E-09 -0.29154682E-04 -0.28240755E-09
    7    6   -0.56611149E-03  0.98509207E-04  0.63887936E-03 -0.11117152E-03 -0.63888056E-03  0.11117187E-03
    8    6    0.35106624E-03  0.13726532E-04  0.35106572E-03  0.13726233E-04  0.36420302E-02  0.14239869E-03
    1    7   -0.99272425E-03 -0.13741702E-03 -0.17125374E-02 -0.23705635E-03  0.44222601E-03  0.61214762E-04
    2    7   -0.11164377E-02  0.90915929E-04  0.97939867E-03 -0.79756693E-04  0.52858082E-03 -0.43044389E-04
    3    7    0.59398359E-03 -0.11765436E-04  0.30847308E-03 -0.61101731E-05 -0.73608372E-03  0.14580265E-04
    4    7    0.48606574E-03 -0.67842669E-04  0.10523905E-02 -0.14688813E-03 -0.81124664E-03  0.11323004E-03
    5    7   -0.34061577E-03 -0.15152798E-03  0.99793814E-03  0.44394749E-03 -0.44404147E-05 -0.19754714E-05
    6    7   -0.47517585E-03 -0.82685429E-04 -0.19364874E-02 -0.33696901E-03  0.37247829E-03  0.64815130E-04
    7    7    0.21961195E-03  0.29047652E-09  0.11731892E-02  0.97122635E-11  0.21961121E-03  0.12854219E-09
    8    7    0.38937330E-03  0.83547557E-04  0.13705910E-03  0.29408659E-04 -0.13567073E-02 -0.29110717E-03
    1    8    0.41271159E-03 -0.30519620E-04 -0.90759786E-03  0.67115498E-04 -0.98995015E-03  0.73205469E-04
    2    8    0.19272321E-02 -0.58061212E-03 -0.28444013E-02  0.85692540E-03 -0.18830626E-02  0.56730509E-03
    3    8   -0.10851265E-02  0.25541353E-03  0.20984922E-03 -0.49393694E-04 -0.18953303E-03  0.44611783E-04
    4    8    0.75560962E-03 -0.27585632E-03 -0.27435927E-03  0.10016271E-03 -0.39775742E-03  0.14521253E-03
    5    8    0.18756445E-02  0.39431390E-03  0.73626507E-04  0.15478241E-04  0.43954159E-03  0.92404258E-04
    6    8   -0.12440437E-02  0.48640237E-04  0.17100245E-02 -0.66859574E-04 -0.49249642E-03  0.19256086E-04
    7    8   -0.51124139E-03  0.10969653E-03 -0.86872998E-03  0.18640253E-03  0.27456480E-03 -0.58913295E-04
    8    8   -0.21961063E-03  0.87621025E-11  0.11731891E-02 -0.27706756E-10 -0.21961140E-03  0.12018076E-10

    4    0   -2
    1    1   -0.56483747E-03  0.59130633E-10 -0.10092322E-02  0.90649209E-10 -0.10092321E-02 -0.30332728E-10
    2    1   -0.67490475E-03  0.15007510E-03 -0.27153269E-03  0.60379302E-04 -0.26287029E-03  0.58453135E-04
    3    1   -0.53283719E-04  0.84542929E-05 -0.21599181E-02  0.34270709E-03  0.18947927E-02 -0.30064035E-03
    4    1   -0.17826513E-02  0.50533980E-03 -0.97871599E-04  0.27744159E-04  0.13658024E-02 -0.38717294E-03
    5    1   -0.84039190E-03 -0.24259122E-03  0.89269939E-03  0.25769050E-03 -0.12587094E-02 -0.36334480E-03
    6    1    0.59344681E-04  0.20624307E-05 -0.20275374E-02 -0.70455784E-04  0.93049810E-03  0.32334158E-04
    7    1    0.60753961E-04 -0.84095794E-05  0.46942405E-04 -0.64976495E-05  0.46557019E-03 -0.64446027E-04
    8    1    0.79279452E-03  0.58626117E-04  0.50475125E-03  0.37325454E-04  0.55100598E-03  0.40745905E-04
    1    2   -0.19507215E-03 -0.43377189E-04  0.40041530E-04  0.89040339E-05 -0.75264336E-03 -0.16736155E-03
    2    2    0.10092925E-02 -0.26160387E-09  0.10092929E-02 -0.16631038E-09  0.56483411E-03 -0.27637911E-09
    3    2    0.26391072E-02  0.16237745E-03 -0.99746623E-03 -0.61371350E-04  0.66951435E-03  0.41193976E-04
    4    2    0.21499393E-04 -0.12358049E-05  0.23857468E-02 -0.13715174E-03 -0.92663510E-03  0.53270350E-04
    5    2   -0.24504812E-02 -0.13381635E-02  0.56686363E-03  0.30955347E-03 -0.89894535E-03 -0.49089779E-03
    6    2    0.11802818E-02  0.30583053E-03 -0.22340294E-02 -0.57887414E-03  0.89482871E-03  0.23186490E-03
    7    2    0.13300956E-02  0.10831527E-03 -0.87883246E-02 -0.71567088E-03  0.10249972E-01  0.83469943E-03
    8    2    0.61897895E-03  0.18647797E-03  0.31799281E-02  0.95800772E-03 -0.22642265E-02 -0.68213711E-03
    1    3   -0.91295785E-03 -0.14485600E-03 -0.12042038E-02 -0.19106707E-03  0.22792930E-02  0.36164804E-03
    2    3   -0.92638626E-03  0.56998075E-04  0.21498465E-04 -0.13228436E-05  0.23851719E-02 -0.14675362E-03
    3    3    0.56483108E-03 -0.41006667E-10  0.10092917E-02 -0.23352395E-10  0.10092938E-02 -0.26385030E-10
    4    3    0.66604702E-03 -0.79551137E-04  0.26254350E-02 -0.31357601E-03 -0.99227510E-03  0.11851496E-03
    5    3   -0.12394323E-02 -0.58104959E-03 -0.61908770E-03 -0.29023040E-03 -0.12319727E-02 -0.57755246E-03
    6    3    0.93607494E-03  0.18205558E-03 -0.21554130E-02 -0.41920319E-03  0.44711851E-03  0.86959180E-04
    7    3    0.79314207E-04  0.15709793E-05  0.23809151E-03  0.47158246E-05  0.65098953E-03  0.12894320E-04
    8    3    0.43587227E-02  0.10259427E-02  0.45664563E-02  0.10748381E-02 -0.27571728E-02 -0.64897503E-03
    1    4   -0.43823607E-03 -0.12422986E-03 -0.91744868E-03 -0.26007496E-03  0.21125622E-02  0.59886162E-03
    2    4   -0.99769877E-03 -0.57355249E-04  0.66967602E-03  0.38498240E-04  0.26397321E-02  0.15175237E-03
    3    4    0.23728273E-02  0.28340492E-03 -0.92161689E-03 -0.11007546E-03  0.21402269E-04  0.25562892E-05
    4    4    0.10092940E-02  0.83200568E-10  0.56483672E-03  0.66891616E-10  0.10092911E-02  0.38459025E-10
    5    4   -0.15495479E-02 -0.96557245E-03  0.19891758E-02  0.12395186E-02 -0.11990616E-02 -0.74717374E-03
    6    4   -0.39050867E-04 -0.12550782E-04  0.73404241E-03  0.23591517E-03  0.19025296E-03  0.61145710E-04
    7    4   -0.33211781E-02 -0.46355541E-03  0.50469052E-02  0.70442410E-03 -0.44448370E-02 -0.62039014E-03
    8    4    0.11167167E-02  0.40768873E-03 -0.30962601E-03 -0.11303770E-03  0.64096066E-03  0.23400107E-03
    1    5    0.31686498E-03 -0.91467705E-04 -0.90669905E-03  0.26173207E-03  0.38265259E-03 -0.11045849E-03
    2    5   -0.70564644E-03  0.38534105E-03  0.68815000E-04 -0.37578778E-04  0.57872169E-03 -0.31602954E-03
    3    5   -0.14090929E-02  0.66058705E-03  0.16576947E-03 -0.77713252E-04 -0.35624304E-03  0.16700805E-03
    4    5   -0.26746111E-03  0.16666348E-03  0.64643362E-03 -0.40281348E-03 -0.26743176E-03  0.16664530E-03
    5    5    0.13672584E-02 -0.11769531E-09  0.13672648E-02  0.18495610E-09  0.13672617E-02  0.16810110E-09
    6    5    0.20682961E-03 -0.51995788E-04 -0.32741766E-03  0.82310773E-04 -0.11424006E-02  0.28719215E-03
    7    5   -0.81655445E-03  0.36325638E-03  0.16111755E-02 -0.71675512E-03 -0.15527480E-02  0.69076304E-03
    8    5    0.17984578E-03 -0.37808717E-04 -0.70281445E-03  0.14775183E-03  0.67299846E-03 -0.14148338E-03
    1    6    0.93049690E-03 -0.32334227E-04 -0.20275371E-02  0.70455597E-04  0.59344452E-04 -0.20622098E-05
    2    6    0.21170163E-02 -0.54855406E-03 -0.18571619E-02  0.48122100E-03  0.52215652E-04 -0.13529923E-04
    3    6    0.99870127E-04 -0.19423495E-04 -0.13935214E-02  0.27102360E-03  0.18188207E-02 -0.35373926E-03
    4    6    0.26482643E-03 -0.85113155E-04  0.25637943E-03 -0.82398501E-04  0.65822668E-03 -0.21154865E-03
    5    6   -0.51416118E-03 -0.12925685E-03 -0.72288113E-03 -0.18172791E-03 -0.34436386E-03 -0.86570337E-04
    6    6   -0.10092323E-02 -0.16962955E-09 -0.10092324E-02 -0.71628634E-10 -0.56483769E-03 -0.12378861E-09
    7    6   -0.64805759E-03  0.11276901E-03  0.15717476E-02 -0.27350036E-03 -0.12236678E-02  0.21293089E-03
    8    6    0.30936148E-03  0.12095787E-04  0.28386777E-02  0.11098879E-03 -0.11510841E-02 -0.45006025E-04
    1    7    0.35289989E-03  0.48849990E-04 -0.24520270E-03 -0.33941959E-04  0.11081307E-02  0.15339210E-03
    2    7   -0.12188039E-02  0.99252565E-04  0.15432375E-03 -0.12567208E-04  0.75590230E-03 -0.61556239E-04
    3    7    0.16117753E-02 -0.31925273E-04  0.18364435E-02 -0.36375630E-04 -0.23342971E-03  0.46238061E-05
    4    7    0.19848983E-03 -0.27704169E-04  0.92470680E-03 -0.12906634E-03 -0.46156105E-03  0.64422781E-04
    5    7   -0.75183908E-03 -0.33446687E-03 -0.24551168E-04 -0.10921999E-04 -0.57540368E-03 -0.25597675E-03
    6    7    0.25398236E-02  0.44195571E-03 -0.11761493E-03 -0.20466285E-04 -0.15218565E-03 -0.26482021E-04
    7    7   -0.10092326E-02 -0.67799591E-10 -0.56483773E-03 -0.94909352E-10 -0.10092323E-02 -0.11435045E-10
    8    7    0.68003720E-03  0.14591489E-03  0.59209767E-03  0.12704574E-03 -0.90108298E-04 -0.19334432E-04
    1    8    0.11182767E-02 -0.82695052E-04 -0.32641153E-03  0.24137794E-04  0.11841232E-02 -0.87564124E-04
    2    8   -0.81179437E-03  0.24456731E-03  0.10265218E-02 -0.30925727E-03  0.23160037E-02 -0.69773633E-03
    3    8    0.19451805E-02 -0.45785067E-03 -0.15786686E-02  0.37158243E-03  0.75953845E-03 -0.17877774E-03
    4    8   -0.48219844E-03  0.17604043E-03 -0.49168528E-03  0.17950354E-03 -0.31294756E-05  0.11425880E-05
    5    8   -0.14473268E-02 -0.30426928E-03  0.97787478E-03  0.20557739E-03 -0.11821277E-02 -0.24851679E-03
    6    8   -0.50821619E-04  0.19867281E-05 -0.79503151E-03  0.31084826E-04 -0.72620213E-03  0.28393674E-04
    7    8   -0.10219083E-03  0.21926836E-04  0.87854734E-03 -0.18850910E-03  0.14430391E-02 -0.30963119E-03
    8    8   -0.13674313E-02 -0.21343611E-09 -0.13674313E-02 -0.12207408E-09 -0.13674310E-02  0.83421760E-11
